REMARK SMILES CCN(Cc1ccccc1)C(=O)Cn1c(=O)n(CC(F)(F)F)c2cnc(-c3ccccc3)nc21
REMARK SMILES IDX 13 1 11 2 12 3 3 4 2 5 1 6 4 7 5 8 6 9 10 10 7 11 9 12 8 13
REMARK SMILES IDX 14 14 34 15 15 16 33 17 23 18 17 19 16 20 26 21 24 22 25 23
REMARK SMILES IDX 18 24 19 25 20 26 21 27 22 28 27 29 28 30 32 31 29 32 31 33
REMARK SMILES IDX 30 34
REMARK H PARENT
ROOT
ATOM      1  C   UNL     1      -0.237  -1.414  -1.843  1.00  0.00     0.229 C 
ENDROOT
BRANCH   1   2
ATOM      2  C   UNL     1      -1.711  -1.683  -1.524  1.00  0.00     0.243 C 
ATOM      3  O   UNL     1      -2.496  -1.910  -2.451  1.00  0.00    -0.273 OA
BRANCH   2   4
ATOM      4  N   UNL     1      -2.135  -1.679  -0.199  1.00  0.00    -0.337 N 
BRANCH   4   5
ATOM      5  C   UNL     1      -1.252  -1.699   0.966  1.00  0.00     0.116 C 
ATOM      6  C   UNL     1      -0.839  -3.115   1.338  1.00  0.00     0.027 C 
ENDBRANCH   4   5
BRANCH   4   7
ATOM      7  C   UNL     1      -3.573  -1.761   0.063  1.00  0.00     0.155 C 
BRANCH   7   8
ATOM      8  C   UNL     1      -4.146  -0.411   0.432  1.00  0.00    -0.029 A 
ATOM      9  C   UNL     1      -4.211   0.615  -0.524  1.00  0.00     0.005 A 
ATOM     10  C   UNL     1      -4.614  -0.158   1.729  1.00  0.00     0.005 A 
ATOM     11  C   UNL     1      -4.731   1.866  -0.189  1.00  0.00     0.000 A 
ATOM     12  C   UNL     1      -5.134   1.094   2.062  1.00  0.00     0.000 A 
ATOM     13  C   UNL     1      -5.192   2.105   1.104  1.00  0.00     0.000 A 
ENDBRANCH   7   8
ENDBRANCH   4   7
ENDBRANCH   2   4
ENDBRANCH   1   2
BRANCH   1  14
ATOM     14  N   UNL     1       0.132  -0.047  -1.570  1.00  0.00    -0.267 N 
ATOM     15  C   UNL     1       1.262   0.328  -0.834  1.00  0.00     0.165 A 
ATOM     16  C   UNL     1      -0.356   1.078  -2.257  1.00  0.00     0.331 A 
ATOM     17  N   UNL     1       2.059  -0.471  -0.127  1.00  0.00    -0.208 NA
ATOM     18  C   UNL     1       1.419   1.690  -0.981  1.00  0.00     0.108 A 
ATOM     19  N   UNL     1       0.411   2.176  -1.816  1.00  0.00    -0.280 N 
ATOM     20  O   UNL     1      -1.251   1.122  -3.082  1.00  0.00    -0.248 OA
ATOM     21  C   UNL     1       3.082   0.170   0.481  1.00  0.00     0.161 A 
ATOM     22  C   UNL     1       2.477   2.259  -0.347  1.00  0.00     0.144 A 
ATOM     23  N   UNL     1       3.318   1.510   0.399  1.00  0.00    -0.234 NA
BRANCH  19  24
ATOM     24  C   UNL     1       0.315   3.511  -2.366  1.00  0.00     0.243 C 
BRANCH  24  25
ATOM     25  C   UNL     1       1.181   3.748  -3.599  1.00  0.00     0.406 C 
ATOM     26  F   UNL     1       0.977   4.993  -4.088  1.00  0.00    -0.169 F 
ATOM     27  F   UNL     1       2.494   3.655  -3.283  1.00  0.00    -0.169 F 
ATOM     28  F   UNL     1       0.930   2.869  -4.588  1.00  0.00    -0.169 F 
ENDBRANCH  24  25
ENDBRANCH  19  24
BRANCH  21  29
ATOM     29  C   UNL     1       4.005  -0.641   1.304  1.00  0.00     0.019 A 
ATOM     30  C   UNL     1       5.086  -0.055   1.991  1.00  0.00     0.012 A 
ATOM     31  C   UNL     1       3.841  -2.034   1.439  1.00  0.00     0.012 A 
ATOM     32  C   UNL     1       5.959  -0.820   2.771  1.00  0.00     0.001 A 
ATOM     33  C   UNL     1       4.712  -2.802   2.219  1.00  0.00     0.001 A 
ATOM     34  C   UNL     1       5.771  -2.194   2.885  1.00  0.00     0.000 A 
ENDBRANCH  21  29
ENDBRANCH   1  14
TORSDOF 9
