MODEL 1
REMARK VINA RESULT:    -5.295      0.000      0.000
REMARK INTER + INTRA:         -10.107
REMARK INTER:                  -7.462
REMARK INTRA:                  -2.645
REMARK UNBOUND:                -2.645
REMARK SMILES CCN(Cc1ccccc1)C(=O)Cn1c(=O)n(C)c2cnc(-c3ccccc3)nc21
REMARK SMILES IDX 12 1 11 2 13 3 14 4 16 5 15 6 17 7 30 8 19 9 29 10 20 11
REMARK SMILES IDX 22 12 21 13 18 14 23 15 24 16 28 17 25 18 27 19 26 20 3 21
REMARK SMILES IDX 4 22 5 23 6 24 10 25 7 26 9 27 8 28 2 29 1 30
REMARK H PARENT
ROOT
ATOM      1  O   UNL     1      -1.016  17.892   7.454  1.00  0.00    -0.273 OA
ATOM      2  C   UNL     1       0.151  17.712   7.098  1.00  0.00     0.243 C 
ENDROOT
BRANCH   2   3
ATOM      3  C   UNL     1       1.307  18.041   8.027  1.00  0.00     0.229 C 
BRANCH   3   4
ATOM      4  N   UNL     1       1.601  16.910   8.867  1.00  0.00    -0.267 N 
ATOM      5  O   UNL     1       0.105  17.196  10.689  1.00  0.00    -0.248 OA
ATOM      6  C   UNL     1       0.990  16.580  10.111  1.00  0.00     0.330 A 
ATOM      7  N   UNL     1       1.629  15.381  10.536  1.00  0.00    -0.292 N 
ATOM      8  C   UNL     1       2.574  15.944   8.555  1.00  0.00     0.165 A 
ATOM      9  C   UNL     1       2.581  15.018   9.581  1.00  0.00     0.107 A 
ATOM     10  N   UNL     1       3.371  15.886   7.481  1.00  0.00    -0.208 NA
ATOM     11  C   UNL     1       3.455  13.970   9.501  1.00  0.00     0.144 A 
ATOM     12  C   UNL     1       4.198  14.815   7.496  1.00  0.00     0.161 A 
ATOM     13  N   UNL     1       4.290  13.846   8.446  1.00  0.00    -0.234 NA
ATOM     14  C   UNL     1       1.341  14.662  11.751  1.00  0.00     0.155 C 
BRANCH  12  15
ATOM     15  C   UNL     1       5.088  14.683   6.372  1.00  0.00     0.019 A 
ATOM     16  C   UNL     1       5.595  15.822   5.739  1.00  0.00     0.012 A 
ATOM     17  C   UNL     1       5.454  13.416   5.909  1.00  0.00     0.012 A 
ATOM     18  C   UNL     1       6.460  15.695   4.652  1.00  0.00     0.001 A 
ATOM     19  C   UNL     1       6.318  13.290   4.821  1.00  0.00     0.001 A 
ATOM     20  C   UNL     1       6.822  14.428   4.193  1.00  0.00     0.000 A 
ENDBRANCH  12  15
ENDBRANCH   3   4
ENDBRANCH   2   3
BRANCH   2  21
ATOM     21  N   UNL     1       0.504  17.203   5.843  1.00  0.00    -0.337 N 
BRANCH  21  22
ATOM     22  C   UNL     1      -0.181  16.060   5.242  1.00  0.00     0.155 C 
BRANCH  22  23
ATOM     23  C   UNL     1       0.369  14.754   5.735  1.00  0.00    -0.029 A 
ATOM     24  C   UNL     1       1.370  14.113   5.013  1.00  0.00     0.005 A 
ATOM     25  C   UNL     1      -0.127  14.196   6.908  1.00  0.00     0.005 A 
ATOM     26  C   UNL     1       1.882  12.899   5.470  1.00  0.00     0.000 A 
ATOM     27  C   UNL     1       0.385  12.981   7.365  1.00  0.00     0.000 A 
ATOM     28  C   UNL     1       1.389  12.332   6.646  1.00  0.00     0.000 A 
ENDBRANCH  22  23
ENDBRANCH  21  22
BRANCH  21  29
ATOM     29  C   UNL     1       1.582  17.772   5.043  1.00  0.00     0.116 C 
ATOM     30  C   UNL     1       1.058  18.788   4.049  1.00  0.00     0.027 C 
ENDBRANCH  21  29
ENDBRANCH   2  21
TORSDOF 7
ENDMDL
MODEL 2
REMARK VINA RESULT:    -5.081      3.492      5.407
REMARK INTER + INTRA:          -9.805
REMARK INTER:                  -8.364
REMARK INTRA:                  -1.441
REMARK UNBOUND:                -2.645
REMARK SMILES CCN(Cc1ccccc1)C(=O)Cn1c(=O)n(C)c2cnc(-c3ccccc3)nc21
REMARK SMILES IDX 12 1 11 2 13 3 14 4 16 5 15 6 17 7 30 8 19 9 29 10 20 11
REMARK SMILES IDX 22 12 21 13 18 14 23 15 24 16 28 17 25 18 27 19 26 20 3 21
REMARK SMILES IDX 4 22 5 23 6 24 10 25 7 26 9 27 8 28 2 29 1 30
REMARK H PARENT
ROOT
ATOM      1  O   UNL     1       4.283  13.544   8.951  1.00  0.00    -0.273 OA
ATOM      2  C   UNL     1       5.065  14.394   8.520  1.00  0.00     0.243 C 
ENDROOT
BRANCH   2   3
ATOM      3  C   UNL     1       6.518  14.409   8.964  1.00  0.00     0.229 C 
BRANCH   3   4
ATOM      4  N   UNL     1       7.043  13.069   8.978  1.00  0.00    -0.267 N 
ATOM      5  O   UNL     1       6.753  12.405  11.239  1.00  0.00    -0.248 OA
ATOM      6  C   UNL     1       7.120  12.186  10.093  1.00  0.00     0.330 A 
ATOM      7  N   UNL     1       7.714  10.995   9.588  1.00  0.00    -0.292 N 
ATOM      8  C   UNL     1       7.573  12.432   7.841  1.00  0.00     0.165 A 
ATOM      9  C   UNL     1       7.978  11.168   8.227  1.00  0.00     0.107 A 
ATOM     10  N   UNL     1       7.688  12.913   6.598  1.00  0.00    -0.208 NA
ATOM     11  C   UNL     1       8.533  10.350   7.283  1.00  0.00     0.144 A 
ATOM     12  C   UNL     1       8.247  12.030   5.740  1.00  0.00     0.161 A 
ATOM     13  N   UNL     1       8.681  10.768   6.007  1.00  0.00    -0.234 NA
ATOM     14  C   UNL     1       7.996   9.807  10.353  1.00  0.00     0.155 C 
BRANCH  12  15
ATOM     15  C   UNL     1       8.405  12.476   4.380  1.00  0.00     0.019 A 
ATOM     16  C   UNL     1       9.648  12.378   3.747  1.00  0.00     0.012 A 
ATOM     17  C   UNL     1       7.316  13.007   3.683  1.00  0.00     0.012 A 
ATOM     18  C   UNL     1       9.801  12.808   2.429  1.00  0.00     0.001 A 
ATOM     19  C   UNL     1       7.470  13.437   2.365  1.00  0.00     0.001 A 
ATOM     20  C   UNL     1       8.711  13.338   1.737  1.00  0.00     0.000 A 
ENDBRANCH  12  15
ENDBRANCH   3   4
ENDBRANCH   2   3
BRANCH   2  21
ATOM     21  N   UNL     1       4.696  15.390   7.608  1.00  0.00    -0.337 N 
BRANCH  21  22
ATOM     22  C   UNL     1       4.607  15.141   6.172  1.00  0.00     0.155 C 
BRANCH  22  23
ATOM     23  C   UNL     1       3.269  14.585   5.781  1.00  0.00    -0.029 A 
ATOM     24  C   UNL     1       3.121  13.215   5.598  1.00  0.00     0.005 A 
ATOM     25  C   UNL     1       2.191  15.444   5.605  1.00  0.00     0.005 A 
ATOM     26  C   UNL     1       1.878  12.697   5.235  1.00  0.00     0.000 A 
ATOM     27  C   UNL     1       0.947  14.926   5.242  1.00  0.00     0.000 A 
ATOM     28  C   UNL     1       0.791  13.553   5.056  1.00  0.00     0.000 A 
ENDBRANCH  22  23
ENDBRANCH  21  22
BRANCH  21  29
ATOM     29  C   UNL     1       4.376  16.750   8.025  1.00  0.00     0.116 C 
ATOM     30  C   UNL     1       3.146  16.785   8.909  1.00  0.00     0.027 C 
ENDBRANCH  21  29
ENDBRANCH   2  21
TORSDOF 7
ENDMDL
MODEL 3
REMARK VINA RESULT:    -5.031      5.195      7.637
REMARK INTER + INTRA:          -9.734
REMARK INTER:                  -8.521
REMARK INTRA:                  -1.213
REMARK UNBOUND:                -2.645
REMARK SMILES CCN(Cc1ccccc1)C(=O)Cn1c(=O)n(C)c2cnc(-c3ccccc3)nc21
REMARK SMILES IDX 12 1 11 2 13 3 14 4 16 5 15 6 17 7 30 8 19 9 29 10 20 11
REMARK SMILES IDX 22 12 21 13 18 14 23 15 24 16 28 17 25 18 27 19 26 20 3 21
REMARK SMILES IDX 4 22 5 23 6 24 10 25 7 26 9 27 8 28 2 29 1 30
REMARK H PARENT
ROOT
ATOM      1  O   UNL     1       7.367  14.155   7.469  1.00  0.00    -0.273 OA
ATOM      2  C   UNL     1       6.543  14.003   6.564  1.00  0.00     0.243 C 
ENDROOT
BRANCH   2   3
ATOM      3  C   UNL     1       6.588  12.776   5.671  1.00  0.00     0.229 C 
BRANCH   3   4
ATOM      4  N   UNL     1       7.954  12.417   5.394  1.00  0.00    -0.267 N 
ATOM      5  O   UNL     1       8.553  13.907   3.645  1.00  0.00    -0.248 OA
ATOM      6  C   UNL     1       8.816  12.999   4.420  1.00  0.00     0.330 A 
ATOM      7  N   UNL     1      10.049  12.296   4.543  1.00  0.00    -0.292 N 
ATOM      8  C   UNL     1       8.643  11.400   6.079  1.00  0.00     0.165 A 
ATOM      9  C   UNL     1       9.919  11.337   5.551  1.00  0.00     0.107 A 
ATOM     10  N   UNL     1       8.196  10.612   7.064  1.00  0.00    -0.208 NA
ATOM     11  C   UNL     1      10.786  10.413   6.062  1.00  0.00     0.144 A 
ATOM     12  C   UNL     1       9.127   9.733   7.500  1.00  0.00     0.161 A 
ATOM     13  N   UNL     1      10.404   9.583   7.057  1.00  0.00    -0.234 NA
ATOM     14  C   UNL     1      11.233  12.536   3.759  1.00  0.00     0.155 C 
BRANCH  12  15
ATOM     15  C   UNL     1       8.719   8.848   8.561  1.00  0.00     0.019 A 
ATOM     16  C   UNL     1       7.411   8.896   9.052  1.00  0.00     0.012 A 
ATOM     17  C   UNL     1       9.627   7.934   9.103  1.00  0.00     0.012 A 
ATOM     18  C   UNL     1       7.014   8.037  10.078  1.00  0.00     0.001 A 
ATOM     19  C   UNL     1       9.230   7.076  10.129  1.00  0.00     0.001 A 
ATOM     20  C   UNL     1       7.924   7.127  10.616  1.00  0.00     0.000 A 
ENDBRANCH  12  15
ENDBRANCH   3   4
ENDBRANCH   2   3
BRANCH   2  21
ATOM     21  N   UNL     1       5.522  14.920   6.289  1.00  0.00    -0.337 N 
BRANCH  21  22
ATOM     22  C   UNL     1       4.300  14.992   7.087  1.00  0.00     0.155 C 
BRANCH  22  23
ATOM     23  C   UNL     1       3.096  14.545   6.310  1.00  0.00    -0.029 A 
ATOM     24  C   UNL     1       2.123  15.472   5.957  1.00  0.00     0.005 A 
ATOM     25  C   UNL     1       2.965  13.208   5.953  1.00  0.00     0.005 A 
ATOM     26  C   UNL     1       1.004  15.058   5.235  1.00  0.00     0.000 A 
ATOM     27  C   UNL     1       1.845  12.793   5.231  1.00  0.00     0.000 A 
ATOM     28  C   UNL     1       0.864  13.717   4.873  1.00  0.00     0.000 A 
ENDBRANCH  22  23
ENDBRANCH  21  22
BRANCH  21  29
ATOM     29  C   UNL     1       5.601  15.870   5.186  1.00  0.00     0.116 C 
ATOM     30  C   UNL     1       5.555  17.301   5.681  1.00  0.00     0.027 C 
ENDBRANCH  21  29
ENDBRANCH   2  21
TORSDOF 7
ENDMDL
MODEL 4
REMARK VINA RESULT:    -5.014      5.200      7.657
REMARK INTER + INTRA:          -9.711
REMARK INTER:                  -8.505
REMARK INTRA:                  -1.205
REMARK UNBOUND:                -2.645
REMARK SMILES CCN(Cc1ccccc1)C(=O)Cn1c(=O)n(C)c2cnc(-c3ccccc3)nc21
REMARK SMILES IDX 12 1 11 2 13 3 14 4 16 5 15 6 17 7 30 8 19 9 29 10 20 11
REMARK SMILES IDX 22 12 21 13 18 14 23 15 24 16 28 17 25 18 27 19 26 20 3 21
REMARK SMILES IDX 4 22 5 23 6 24 10 25 7 26 9 27 8 28 2 29 1 30
REMARK H PARENT
ROOT
ATOM      1  O   UNL     1       7.324  14.076   7.480  1.00  0.00    -0.273 OA
ATOM      2  C   UNL     1       6.517  13.948   6.556  1.00  0.00     0.243 C 
ENDROOT
BRANCH   2   3
ATOM      3  C   UNL     1       6.565  12.734   5.645  1.00  0.00     0.229 C 
BRANCH   3   4
ATOM      4  N   UNL     1       7.932  12.383   5.362  1.00  0.00    -0.267 N 
ATOM      5  O   UNL     1       8.510  13.869   3.603  1.00  0.00    -0.248 OA
ATOM      6  C   UNL     1       8.784  12.966   4.381  1.00  0.00     0.330 A 
ATOM      7  N   UNL     1      10.022  12.273   4.499  1.00  0.00    -0.292 N 
ATOM      8  C   UNL     1       8.632  11.374   6.047  1.00  0.00     0.165 A 
ATOM      9  C   UNL     1       9.905  11.317   5.511  1.00  0.00     0.107 A 
ATOM     10  N   UNL     1       8.195  10.587   7.038  1.00  0.00    -0.208 NA
ATOM     11  C   UNL     1      10.781  10.401   6.021  1.00  0.00     0.144 A 
ATOM     12  C   UNL     1       9.135   9.716   7.473  1.00  0.00     0.161 A 
ATOM     13  N   UNL     1      10.411   9.573   7.022  1.00  0.00    -0.234 NA
ATOM     14  C   UNL     1      11.200  12.517   3.707  1.00  0.00     0.155 C 
BRANCH  12  15
ATOM     15  C   UNL     1       8.739   8.833   8.539  1.00  0.00     0.019 A 
ATOM     16  C   UNL     1       9.662   7.942   9.094  1.00  0.00     0.012 A 
ATOM     17  C   UNL     1       7.430   8.865   9.029  1.00  0.00     0.012 A 
ATOM     18  C   UNL     1       9.280   7.089  10.129  1.00  0.00     0.001 A 
ATOM     19  C   UNL     1       7.048   8.010  10.063  1.00  0.00     0.001 A 
ATOM     20  C   UNL     1       7.972   7.123  10.614  1.00  0.00     0.000 A 
ENDBRANCH  12  15
ENDBRANCH   3   4
ENDBRANCH   2   3
BRANCH   2  21
ATOM     21  N   UNL     1       5.514  14.883   6.274  1.00  0.00    -0.337 N 
BRANCH  21  22
ATOM     22  C   UNL     1       4.293  14.983   7.071  1.00  0.00     0.155 C 
BRANCH  22  23
ATOM     23  C   UNL     1       3.083  14.543   6.300  1.00  0.00    -0.029 A 
ATOM     24  C   UNL     1       2.927  13.200   5.973  1.00  0.00     0.005 A 
ATOM     25  C   UNL     1       2.131  15.481   5.918  1.00  0.00     0.005 A 
ATOM     26  C   UNL     1       1.803  12.790   5.257  1.00  0.00     0.000 A 
ATOM     27  C   UNL     1       1.006  15.070   5.202  1.00  0.00     0.000 A 
ATOM     28  C   UNL     1       0.842  13.726   4.871  1.00  0.00     0.000 A 
ENDBRANCH  22  23
ENDBRANCH  21  22
BRANCH  21  29
ATOM     29  C   UNL     1       5.612  15.824   5.165  1.00  0.00     0.116 C 
ATOM     30  C   UNL     1       5.844  17.238   5.655  1.00  0.00     0.027 C 
ENDBRANCH  21  29
ENDBRANCH   2  21
TORSDOF 7
ENDMDL
MODEL 5
REMARK VINA RESULT:    -4.747      2.863      5.818
REMARK INTER + INTRA:          -9.335
REMARK INTER:                  -6.886
REMARK INTRA:                  -2.449
REMARK UNBOUND:                -2.645
REMARK SMILES CCN(Cc1ccccc1)C(=O)Cn1c(=O)n(C)c2cnc(-c3ccccc3)nc21
REMARK SMILES IDX 12 1 11 2 13 3 14 4 16 5 15 6 17 7 30 8 19 9 29 10 20 11
REMARK SMILES IDX 22 12 21 13 18 14 23 15 24 16 28 17 25 18 27 19 26 20 3 21
REMARK SMILES IDX 4 22 5 23 6 24 10 25 7 26 9 27 8 28 2 29 1 30
REMARK H PARENT
ROOT
ATOM      1  O   UNL     1       4.766  12.708  10.577  1.00  0.00    -0.273 OA
ATOM      2  C   UNL     1       4.768  13.941  10.567  1.00  0.00     0.243 C 
ENDROOT
BRANCH   2   3
ATOM      3  C   UNL     1       5.983  14.713  10.081  1.00  0.00     0.229 C 
BRANCH   3   4
ATOM      4  N   UNL     1       6.562  14.052   8.941  1.00  0.00    -0.267 N 
ATOM      5  O   UNL     1       8.744  13.502   9.696  1.00  0.00    -0.248 OA
ATOM      6  C   UNL     1       7.874  13.507   8.837  1.00  0.00     0.330 A 
ATOM      7  N   UNL     1       7.956  12.972   7.520  1.00  0.00    -0.292 N 
ATOM      8  C   UNL     1       5.877  13.853   7.729  1.00  0.00     0.165 A 
ATOM      9  C   UNL     1       6.738  13.193   6.872  1.00  0.00     0.107 A 
ATOM     10  N   UNL     1       4.628  14.213   7.413  1.00  0.00    -0.208 NA
ATOM     11  C   UNL     1       6.292  12.886   5.617  1.00  0.00     0.144 A 
ATOM     12  C   UNL     1       4.282  13.865   6.152  1.00  0.00     0.161 A 
ATOM     13  N   UNL     1       5.042  13.218   5.227  1.00  0.00    -0.234 NA
ATOM     14  C   UNL     1       9.103  12.313   6.951  1.00  0.00     0.155 C 
BRANCH  12  15
ATOM     15  C   UNL     1       2.949  14.221   5.737  1.00  0.00     0.019 A 
ATOM     16  C   UNL     1       2.542  15.558   5.750  1.00  0.00     0.012 A 
ATOM     17  C   UNL     1       2.057  13.232   5.314  1.00  0.00     0.012 A 
ATOM     18  C   UNL     1       1.253  15.903   5.345  1.00  0.00     0.001 A 
ATOM     19  C   UNL     1       0.767  13.578   4.910  1.00  0.00     0.001 A 
ATOM     20  C   UNL     1       0.365  14.913   4.925  1.00  0.00     0.000 A 
ENDBRANCH  12  15
ENDBRANCH   3   4
ENDBRANCH   2   3
BRANCH   2  21
ATOM     21  N   UNL     1       3.682  14.717  10.989  1.00  0.00    -0.337 N 
BRANCH  21  22
ATOM     22  C   UNL     1       3.183  15.850  10.214  1.00  0.00     0.155 C 
BRANCH  22  23
ATOM     23  C   UNL     1       1.860  15.551   9.572  1.00  0.00    -0.029 A 
ATOM     24  C   UNL     1       1.586  14.261   9.130  1.00  0.00     0.005 A 
ATOM     25  C   UNL     1       0.921  16.565   9.423  1.00  0.00     0.005 A 
ATOM     26  C   UNL     1       0.357  13.982   8.533  1.00  0.00     0.000 A 
ATOM     27  C   UNL     1      -0.309  16.285   8.825  1.00  0.00     0.000 A 
ATOM     28  C   UNL     1      -0.591  14.995   8.380  1.00  0.00     0.000 A 
ENDBRANCH  22  23
ENDBRANCH  21  22
BRANCH  21  29
ATOM     29  C   UNL     1       2.970  14.453  12.234  1.00  0.00     0.116 C 
ATOM     30  C   UNL     1       2.603  15.738  12.947  1.00  0.00     0.027 C 
ENDBRANCH  21  29
ENDBRANCH   2  21
TORSDOF 7
ENDMDL
MODEL 6
REMARK VINA RESULT:    -4.729      2.568      5.512
REMARK INTER + INTRA:          -9.309
REMARK INTER:                  -6.277
REMARK INTRA:                  -3.032
REMARK UNBOUND:                -2.645
REMARK SMILES CCN(Cc1ccccc1)C(=O)Cn1c(=O)n(C)c2cnc(-c3ccccc3)nc21
REMARK SMILES IDX 12 1 11 2 13 3 14 4 16 5 15 6 17 7 30 8 19 9 29 10 20 11
REMARK SMILES IDX 22 12 21 13 18 14 23 15 24 16 28 17 25 18 27 19 26 20 3 21
REMARK SMILES IDX 4 22 5 23 6 24 10 25 7 26 9 27 8 28 2 29 1 30
REMARK H PARENT
ROOT
ATOM      1  O   UNL     1       3.537  15.890  12.406  1.00  0.00    -0.273 OA
ATOM      2  C   UNL     1       3.085  14.809  12.022  1.00  0.00     0.243 C 
ENDROOT
BRANCH   2   3
ATOM      3  C   UNL     1       1.743  14.306  12.525  1.00  0.00     0.229 C 
BRANCH   3   4
ATOM      4  N   UNL     1       0.695  15.204  12.117  1.00  0.00    -0.267 N 
ATOM      5  O   UNL     1       0.064  16.248  14.153  1.00  0.00    -0.248 OA
ATOM      6  C   UNL     1      -0.051  16.089  12.946  1.00  0.00     0.330 A 
ATOM      7  N   UNL     1      -0.959  16.749  12.070  1.00  0.00    -0.292 N 
ATOM      8  C   UNL     1       0.252  15.325  10.787  1.00  0.00     0.165 A 
ATOM      9  C   UNL     1      -0.756  16.271  10.773  1.00  0.00     0.107 A 
ATOM     10  N   UNL     1       0.689  14.673   9.704  1.00  0.00    -0.208 NA
ATOM     11  C   UNL     1      -1.351  16.565   9.578  1.00  0.00     0.144 A 
ATOM     12  C   UNL     1       0.039  15.033   8.573  1.00  0.00     0.161 A 
ATOM     13  N   UNL     1      -0.961  15.946   8.442  1.00  0.00    -0.234 NA
ATOM     14  C   UNL     1      -1.925  17.745  12.456  1.00  0.00     0.155 C 
BRANCH  12  15
ATOM     15  C   UNL     1       0.454  14.372   7.363  1.00  0.00     0.019 A 
ATOM     16  C   UNL     1       1.090  13.129   7.423  1.00  0.00     0.012 A 
ATOM     17  C   UNL     1       0.218  14.968   6.120  1.00  0.00     0.012 A 
ATOM     18  C   UNL     1       1.490  12.488   6.250  1.00  0.00     0.001 A 
ATOM     19  C   UNL     1       0.619  14.326   4.948  1.00  0.00     0.001 A 
ATOM     20  C   UNL     1       1.254  13.086   5.012  1.00  0.00     0.000 A 
ENDBRANCH  12  15
ENDBRANCH   3   4
ENDBRANCH   2   3
BRANCH   2  21
ATOM     21  N   UNL     1       3.747  13.976  11.113  1.00  0.00    -0.337 N 
BRANCH  21  22
ATOM     22  C   UNL     1       4.919  14.415  10.359  1.00  0.00     0.155 C 
BRANCH  22  23
ATOM     23  C   UNL     1       4.574  14.772   8.943  1.00  0.00    -0.029 A 
ATOM     24  C   UNL     1       3.852  15.932   8.682  1.00  0.00     0.005 A 
ATOM     25  C   UNL     1       4.977  13.940   7.905  1.00  0.00     0.005 A 
ATOM     26  C   UNL     1       3.531  16.265   7.367  1.00  0.00     0.000 A 
ATOM     27  C   UNL     1       4.655  14.273   6.589  1.00  0.00     0.000 A 
ATOM     28  C   UNL     1       3.932  15.435   6.319  1.00  0.00     0.000 A 
ENDBRANCH  22  23
ENDBRANCH  21  22
BRANCH  21  29
ATOM     29  C   UNL     1       3.315  12.608  10.849  1.00  0.00     0.116 C 
ATOM     30  C   UNL     1       4.423  11.613  11.126  1.00  0.00     0.027 C 
ENDBRANCH  21  29
ENDBRANCH   2  21
TORSDOF 7
ENDMDL
MODEL 7
REMARK VINA RESULT:    -4.619      5.157      8.426
REMARK INTER + INTRA:          -9.154
REMARK INTER:                  -7.930
REMARK INTRA:                  -1.224
REMARK UNBOUND:                -2.645
REMARK SMILES CCN(Cc1ccccc1)C(=O)Cn1c(=O)n(C)c2cnc(-c3ccccc3)nc21
REMARK SMILES IDX 12 1 11 2 13 3 14 4 16 5 15 6 17 7 30 8 19 9 29 10 20 11
REMARK SMILES IDX 22 12 21 13 18 14 23 15 24 16 28 17 25 18 27 19 26 20 3 21
REMARK SMILES IDX 4 22 5 23 6 24 10 25 7 26 9 27 8 28 2 29 1 30
REMARK H PARENT
ROOT
ATOM      1  O   UNL     1       8.278  11.755   5.231  1.00  0.00    -0.273 OA
ATOM      2  C   UNL     1       8.458  11.535   6.432  1.00  0.00     0.243 C 
ENDROOT
BRANCH   2   3
ATOM      3  C   UNL     1       7.666  12.289   7.487  1.00  0.00     0.229 C 
BRANCH   3   4
ATOM      4  N   UNL     1       7.671  13.698   7.194  1.00  0.00    -0.267 N 
ATOM      5  O   UNL     1       9.888  14.348   7.739  1.00  0.00    -0.248 OA
ATOM      6  C   UNL     1       8.761  14.603   7.340  1.00  0.00     0.330 A 
ATOM      7  N   UNL     1       8.257  15.868   6.923  1.00  0.00    -0.292 N 
ATOM      8  C   UNL     1       6.549  14.393   6.707  1.00  0.00     0.165 A 
ATOM      9  C   UNL     1       6.920  15.715   6.546  1.00  0.00     0.107 A 
ATOM     10  N   UNL     1       5.330  13.914   6.433  1.00  0.00    -0.208 NA
ATOM     11  C   UNL     1       5.987  16.596   6.077  1.00  0.00     0.144 A 
ATOM     12  C   UNL     1       4.481  14.863   5.977  1.00  0.00     0.161 A 
ATOM     13  N   UNL     1       4.735  16.184   5.780  1.00  0.00    -0.234 NA
ATOM     14  C   UNL     1       9.001  17.101   6.895  1.00  0.00     0.155 C 
BRANCH  12  15
ATOM     15  C   UNL     1       3.146  14.423   5.661  1.00  0.00     0.019 A 
ATOM     16  C   UNL     1       2.878  13.063   5.481  1.00  0.00     0.012 A 
ATOM     17  C   UNL     1       2.110  15.353   5.536  1.00  0.00     0.012 A 
ATOM     18  C   UNL     1       1.585  12.637   5.178  1.00  0.00     0.001 A 
ATOM     19  C   UNL     1       0.818  14.926   5.232  1.00  0.00     0.001 A 
ATOM     20  C   UNL     1       0.554  13.569   5.053  1.00  0.00     0.000 A 
ENDBRANCH  12  15
ENDBRANCH   3   4
ENDBRANCH   2   3
BRANCH   2  21
ATOM     21  N   UNL     1       9.380  10.599   6.914  1.00  0.00    -0.337 N 
BRANCH  21  22
ATOM     22  C   UNL     1       9.147   9.159   6.831  1.00  0.00     0.155 C 
BRANCH  22  23
ATOM     23  C   UNL     1       8.768   8.575   8.161  1.00  0.00    -0.029 A 
ATOM     24  C   UNL     1       7.495   8.797   8.672  1.00  0.00     0.005 A 
ATOM     25  C   UNL     1       9.694   7.818   8.869  1.00  0.00     0.005 A 
ATOM     26  C   UNL     1       7.142   8.254   9.907  1.00  0.00     0.000 A 
ATOM     27  C   UNL     1       9.341   7.275  10.105  1.00  0.00     0.000 A 
ATOM     28  C   UNL     1       8.066   7.493  10.624  1.00  0.00     0.000 A 
ENDBRANCH  22  23
ENDBRANCH  21  22
BRANCH  21  29
ATOM     29  C   UNL     1      10.638  10.991   7.537  1.00  0.00     0.116 C 
ATOM     30  C   UNL     1      11.817  10.291   6.894  1.00  0.00     0.027 C 
ENDBRANCH  21  29
ENDBRANCH   2  21
TORSDOF 7
ENDMDL
MODEL 8
REMARK VINA RESULT:    -4.580      3.162      5.819
REMARK INTER + INTRA:          -9.099
REMARK INTER:                  -6.437
REMARK INTRA:                  -2.662
REMARK UNBOUND:                -2.645
REMARK SMILES CCN(Cc1ccccc1)C(=O)Cn1c(=O)n(C)c2cnc(-c3ccccc3)nc21
REMARK SMILES IDX 12 1 11 2 13 3 14 4 16 5 15 6 17 7 30 8 19 9 29 10 20 11
REMARK SMILES IDX 22 12 21 13 18 14 23 15 24 16 28 17 25 18 27 19 26 20 3 21
REMARK SMILES IDX 4 22 5 23 6 24 10 25 7 26 9 27 8 28 2 29 1 30
REMARK H PARENT
ROOT
ATOM      1  O   UNL     1       7.373  16.512  10.040  1.00  0.00    -0.273 OA
ATOM      2  C   UNL     1       6.324  15.884   9.873  1.00  0.00     0.243 C 
ENDROOT
BRANCH   2   3
ATOM      3  C   UNL     1       6.306  14.367   9.946  1.00  0.00     0.229 C 
BRANCH   3   4
ATOM      4  N   UNL     1       6.868  13.810   8.743  1.00  0.00    -0.267 N 
ATOM      5  O   UNL     1       9.103  13.320   9.376  1.00  0.00    -0.248 OA
ATOM      6  C   UNL     1       8.199  13.338   8.553  1.00  0.00     0.330 A 
ATOM      7  N   UNL     1       8.250  12.894   7.202  1.00  0.00    -0.292 N 
ATOM      8  C   UNL     1       6.143  13.655   7.548  1.00  0.00     0.165 A 
ATOM      9  C   UNL     1       6.998  13.096   6.616  1.00  0.00     0.107 A 
ATOM     10  N   UNL     1       4.867  13.973   7.304  1.00  0.00    -0.208 NA
ATOM     11  C   UNL     1       6.515  12.847   5.362  1.00  0.00     0.144 A 
ATOM     12  C   UNL     1       4.485  13.690   6.037  1.00  0.00     0.161 A 
ATOM     13  N   UNL     1       5.236  13.143   5.043  1.00  0.00    -0.234 NA
ATOM     14  C   UNL     1       9.402  12.329   6.547  1.00  0.00     0.155 C 
BRANCH  12  15
ATOM     15  C   UNL     1       3.122  14.006   5.698  1.00  0.00     0.019 A 
ATOM     16  C   UNL     1       2.232  12.989   5.339  1.00  0.00     0.012 A 
ATOM     17  C   UNL     1       2.678  15.331   5.728  1.00  0.00     0.012 A 
ATOM     18  C   UNL     1       0.911  13.294   5.013  1.00  0.00     0.001 A 
ATOM     19  C   UNL     1       1.357  15.636   5.401  1.00  0.00     0.001 A 
ATOM     20  C   UNL     1       0.473  14.618   5.044  1.00  0.00     0.000 A 
ENDBRANCH  12  15
ENDBRANCH   3   4
ENDBRANCH   2   3
BRANCH   2  21
ATOM     21  N   UNL     1       5.092  16.497   9.613  1.00  0.00    -0.337 N 
BRANCH  21  22
ATOM     22  C   UNL     1       3.975  16.434  10.552  1.00  0.00     0.155 C 
BRANCH  22  23
ATOM     23  C   UNL     1       2.750  15.834   9.926  1.00  0.00    -0.029 A 
ATOM     24  C   UNL     1       2.725  14.476   9.627  1.00  0.00     0.005 A 
ATOM     25  C   UNL     1       1.652  16.641   9.649  1.00  0.00     0.005 A 
ATOM     26  C   UNL     1       1.587  13.918   9.045  1.00  0.00     0.000 A 
ATOM     27  C   UNL     1       0.513  16.082   9.067  1.00  0.00     0.000 A 
ATOM     28  C   UNL     1       0.481  14.721   8.765  1.00  0.00     0.000 A 
ENDBRANCH  22  23
ENDBRANCH  21  22
BRANCH  21  29
ATOM     29  C   UNL     1       4.834  17.240   8.386  1.00  0.00     0.116 C 
ATOM     30  C   UNL     1       5.087  18.722   8.571  1.00  0.00     0.027 C 
ENDBRANCH  21  29
ENDBRANCH   2  21
TORSDOF 7
ENDMDL
MODEL 9
REMARK VINA RESULT:    -4.571      4.687      7.452
REMARK INTER + INTRA:          -9.086
REMARK INTER:                  -7.893
REMARK INTRA:                  -1.193
REMARK UNBOUND:                -2.645
REMARK SMILES CCN(Cc1ccccc1)C(=O)Cn1c(=O)n(C)c2cnc(-c3ccccc3)nc21
REMARK SMILES IDX 12 1 11 2 13 3 14 4 16 5 15 6 17 7 30 8 19 9 29 10 20 11
REMARK SMILES IDX 22 12 21 13 18 14 23 15 24 16 28 17 25 18 27 19 26 20 3 21
REMARK SMILES IDX 4 22 5 23 6 24 10 25 7 26 9 27 8 28 2 29 1 30
REMARK H PARENT
ROOT
ATOM      1  O   UNL     1       6.077  15.708   5.335  1.00  0.00    -0.273 OA
ATOM      2  C   UNL     1       5.853  14.559   5.720  1.00  0.00     0.243 C 
ENDROOT
BRANCH   2   3
ATOM      3  C   UNL     1       6.025  13.377   4.781  1.00  0.00     0.229 C 
BRANCH   3   4
ATOM      4  N   UNL     1       7.381  13.321   4.303  1.00  0.00    -0.267 N 
ATOM      5  O   UNL     1       7.403  14.944   2.570  1.00  0.00    -0.248 OA
ATOM      6  C   UNL     1       7.956  14.094   3.253  1.00  0.00     0.330 A 
ATOM      7  N   UNL     1       9.311  13.665   3.170  1.00  0.00    -0.292 N 
ATOM      8  C   UNL     1       8.356  12.457   4.833  1.00  0.00     0.165 A 
ATOM      9  C   UNL     1       9.528  12.677   4.133  1.00  0.00     0.107 A 
ATOM     10  N   UNL     1       8.227  11.570   5.826  1.00  0.00    -0.208 NA
ATOM     11  C   UNL     1      10.631  11.945   4.472  1.00  0.00     0.144 A 
ATOM     12  C   UNL     1       9.372  10.897   6.085  1.00  0.00     0.161 A 
ATOM     13  N   UNL     1      10.575  11.030   5.465  1.00  0.00    -0.234 NA
ATOM     14  C   UNL     1      10.296  14.167   2.246  1.00  0.00     0.155 C 
BRANCH  12  15
ATOM     15  C   UNL     1       9.312   9.921   7.143  1.00  0.00     0.019 A 
ATOM     16  C   UNL     1      10.453   9.197   7.497  1.00  0.00     0.012 A 
ATOM     17  C   UNL     1       8.112   9.696   7.824  1.00  0.00     0.012 A 
ATOM     18  C   UNL     1      10.396   8.254   8.524  1.00  0.00     0.001 A 
ATOM     19  C   UNL     1       8.055   8.752   8.850  1.00  0.00     0.001 A 
ATOM     20  C   UNL     1       9.196   8.032   9.200  1.00  0.00     0.000 A 
ENDBRANCH  12  15
ENDBRANCH   3   4
ENDBRANCH   2   3
BRANCH   2  21
ATOM     21  N   UNL     1       5.434  14.248   7.020  1.00  0.00    -0.337 N 
BRANCH  21  22
ATOM     22  C   UNL     1       4.148  14.690   7.553  1.00  0.00     0.155 C 
BRANCH  22  23
ATOM     23  C   UNL     1       3.016  14.372   6.620  1.00  0.00    -0.029 A 
ATOM     24  C   UNL     1       2.244  15.405   6.099  1.00  0.00     0.005 A 
ATOM     25  C   UNL     1       2.749  13.050   6.286  1.00  0.00     0.005 A 
ATOM     26  C   UNL     1       1.192  15.112   5.233  1.00  0.00     0.000 A 
ATOM     27  C   UNL     1       1.696  12.756   5.418  1.00  0.00     0.000 A 
ATOM     28  C   UNL     1       0.917  13.786   4.892  1.00  0.00     0.000 A 
ENDBRANCH  22  23
ENDBRANCH  21  22
BRANCH  21  29
ATOM     29  C   UNL     1       6.252  13.464   7.937  1.00  0.00     0.116 C 
ATOM     30  C   UNL     1       5.691  13.493   9.344  1.00  0.00     0.027 C 
ENDBRANCH  21  29
ENDBRANCH   2  21
TORSDOF 7
ENDMDL
MODEL 10
REMARK VINA RESULT:    -4.566      3.706      6.397
REMARK INTER + INTRA:          -9.079
REMARK INTER:                  -7.353
REMARK INTRA:                  -1.726
REMARK UNBOUND:                -2.645
REMARK SMILES CCN(Cc1ccccc1)C(=O)Cn1c(=O)n(C)c2cnc(-c3ccccc3)nc21
REMARK SMILES IDX 12 1 11 2 13 3 14 4 16 5 15 6 17 7 30 8 19 9 29 10 20 11
REMARK SMILES IDX 22 12 21 13 18 14 23 15 24 16 28 17 25 18 27 19 26 20 3 21
REMARK SMILES IDX 4 22 5 23 6 24 10 25 7 26 9 27 8 28 2 29 1 30
REMARK H PARENT
ROOT
ATOM      1  O   UNL     1       4.339  16.988   5.403  1.00  0.00    -0.273 OA
ATOM      2  C   UNL     1       5.047  16.148   5.965  1.00  0.00     0.243 C 
ENDROOT
BRANCH   2   3
ATOM      3  C   UNL     1       6.562  16.234   5.888  1.00  0.00     0.229 C 
BRANCH   3   4
ATOM      4  N   UNL     1       7.041  15.485   4.756  1.00  0.00    -0.267 N 
ATOM      5  O   UNL     1       6.779  17.012   2.957  1.00  0.00    -0.248 OA
ATOM      6  C   UNL     1       7.111  15.922   3.402  1.00  0.00     0.330 A 
ATOM      7  N   UNL     1       7.650  14.821   2.679  1.00  0.00    -0.292 N 
ATOM      8  C   UNL     1       7.520  14.165   4.845  1.00  0.00     0.165 A 
ATOM      9  C   UNL     1       7.888  13.773   3.572  1.00  0.00     0.107 A 
ATOM     10  N   UNL     1       7.622  13.391   5.931  1.00  0.00    -0.208 NA
ATOM     11  C   UNL     1       8.390  12.513   3.403  1.00  0.00     0.144 A 
ATOM     12  C   UNL     1       8.129  12.166   5.660  1.00  0.00     0.161 A 
ATOM     13  N   UNL     1       8.522  11.675   4.454  1.00  0.00    -0.234 NA
ATOM     14  C   UNL     1       7.907  14.791   1.262  1.00  0.00     0.155 C 
BRANCH  12  15
ATOM     15  C   UNL     1       8.268  11.273   6.782  1.00  0.00     0.019 A 
ATOM     16  C   UNL     1       8.633   9.939   6.577  1.00  0.00     0.012 A 
ATOM     17  C   UNL     1       8.043  11.735   8.081  1.00  0.00     0.012 A 
ATOM     18  C   UNL     1       8.770   9.074   7.663  1.00  0.00     0.001 A 
ATOM     19  C   UNL     1       8.179  10.869   9.167  1.00  0.00     0.001 A 
ATOM     20  C   UNL     1       8.543   9.539   8.959  1.00  0.00     0.000 A 
ENDBRANCH  12  15
ENDBRANCH   3   4
ENDBRANCH   2   3
BRANCH   2  21
ATOM     21  N   UNL     1       4.534  15.076   6.703  1.00  0.00    -0.337 N 
BRANCH  21  22
ATOM     22  C   UNL     1       4.026  13.862   6.067  1.00  0.00     0.155 C 
BRANCH  22  23
ATOM     23  C   UNL     1       2.537  13.739   6.204  1.00  0.00    -0.029 A 
ATOM     24  C   UNL     1       2.002  12.784   7.062  1.00  0.00     0.005 A 
ATOM     25  C   UNL     1       1.706  14.578   5.471  1.00  0.00     0.005 A 
ATOM     26  C   UNL     1       0.618  12.668   7.190  1.00  0.00     0.000 A 
ATOM     27  C   UNL     1       0.321  14.462   5.599  1.00  0.00     0.000 A 
ATOM     28  C   UNL     1      -0.223  13.507   6.458  1.00  0.00     0.000 A 
ENDBRANCH  22  23
ENDBRANCH  21  22
BRANCH  21  29
ATOM     29  C   UNL     1       4.466  15.090   8.159  1.00  0.00     0.116 C 
ATOM     30  C   UNL     1       5.220  13.923   8.762  1.00  0.00     0.027 C 
ENDBRANCH  21  29
ENDBRANCH   2  21
TORSDOF 7
ENDMDL
