MODEL 1
REMARK VINA RESULT:    -5.481      0.000      0.000
REMARK INTER + INTRA:         -10.942
REMARK INTER:                  -8.364
REMARK INTRA:                  -2.578
REMARK UNBOUND:                -2.578
REMARK  Name = emap3_Bn_OCH2CF3
REMARK  10 active torsions:
REMARK  status: ('A' for Active; 'I' for Inactive)
REMARK    1  A    between atoms: C_1  and  C_2
REMARK    2  A    between atoms: C_2  and  N_3
REMARK    3  A    between atoms: N_3  and  C_4
REMARK    4  A    between atoms: C_4  and  C_5
REMARK    5  A    between atoms: C_11  and  C_13
REMARK    6  A    between atoms: C_13  and  N_14
REMARK    7  A    between atoms: C_19  and  C_21
REMARK    8  A    between atoms: N_27  and  C_30
REMARK    9  A    between atoms: C_30  and  O_31
REMARK   10  A    between atoms: O_31  and  C_32
REMARK                            x       y       z     vdW  Elec       q    Type
REMARK                         _______ _______ _______ _____ _____    ______ ____
ROOT
ATOM      1  N   UNL     1       6.556  13.729   9.061  0.00  0.00    +0.000 N 
ATOM      2  C   UNL     1       5.968  13.602   7.860  0.00  0.00    +0.000 A 
ATOM      3  C   UNL     1       6.840  13.057   6.972  0.00  0.00    +0.000 A 
ATOM      4  C   UNL     1       6.467  12.870   5.651  0.00  0.00    +0.000 A 
ATOM      5  N   UNL     1       5.202  13.247   5.298  0.00  0.00    +0.000 NA
ATOM      6  C   UNL     1       4.328  13.798   6.207  0.00  0.00    +0.000 A 
ATOM      7  N   UNL     1       4.718  13.985   7.507  0.00  0.00    +0.000 NA
ATOM      8  N   UNL     1       8.011  12.815   7.588  0.00  0.00    +0.000 N 
ATOM      9  C   UNL     1       7.811  13.253   8.857  0.00  0.00    +0.000 A 
ATOM     10  O   UNL     1       8.706  13.242   9.745  0.00  0.00    +0.000 OA
ENDROOT
BRANCH   6  11
ATOM     11  C   UNL     1       2.972  14.194   5.780  0.00  0.00    +0.000 A 
ATOM     12  C   UNL     1       2.050  13.224   5.358  0.00  0.00    +0.000 A 
ATOM     13  C   UNL     1       0.764  13.598   4.954  0.00  0.00    +0.000 A 
ATOM     14  C   UNL     1       0.391  14.945   4.971  0.00  0.00    +0.000 A 
ATOM     15  C   UNL     1       1.302  15.918   5.391  0.00  0.00    +0.000 A 
ATOM     16  C   UNL     1       2.588  15.543   5.794  0.00  0.00    +0.000 A 
ENDBRANCH   6  11
BRANCH   1  17
ATOM     17  C   UNL     1       6.003  14.342  10.263  0.00  0.00    +0.000 C 
BRANCH  17  19
ATOM     18  N   UNL     1       3.839  13.762  11.494  0.00  0.00    +0.000 N 
ATOM     19  C   UNL     1       5.133  13.369  11.001  0.00  0.00    +0.000 C 
ATOM     20  O   UNL     1       5.564  12.203  11.216  0.00  0.00    +0.000 OA
BRANCH  18  22
ATOM     21  C   UNL     1       2.711  13.168  13.576  0.00  0.00    +0.000 C 
ATOM     22  C   UNL     1       2.958  12.790  12.127  0.00  0.00    +0.000 C 
ENDBRANCH  18  22
BRANCH  18  23
ATOM     23  C   UNL     1       3.337  15.120  11.307  0.00  0.00    +0.000 C 
BRANCH  23  24
ATOM     24  C   UNL     1       2.065  15.122  10.524  0.00  0.00    +0.000 A 
ATOM     25  C   UNL     1       1.933  14.335   9.372  0.00  0.00    +0.000 A 
ATOM     26  C   UNL     1       0.731  14.334   8.658  0.00  0.00    +0.000 A 
ATOM     27  C   UNL     1      -0.344  15.113   9.097  0.00  0.00    +0.000 A 
ATOM     28  C   UNL     1      -0.218  15.893  10.252  0.00  0.00    +0.000 A 
ATOM     29  C   UNL     1       0.985  15.895  10.965  0.00  0.00    +0.000 A 
ENDBRANCH  23  24
ENDBRANCH  18  23
ENDBRANCH  17  19
ENDBRANCH   1  17
BRANCH   8  30
ATOM     30  C   UNL     1       9.248  12.328   6.996  0.00  0.00    +0.000 C 
BRANCH  30  31
ATOM     31  O   UNL     1       9.583  11.088   7.561  0.00  0.00    +0.000 OA
BRANCH  31  32
ATOM     32  C   UNL     1       9.030  10.080   6.749  0.00  0.00    +0.000 C 
ATOM     33  F   UNL     1       7.837   9.615   7.284  0.00  0.00    +0.000 F 
ATOM     34  F   UNL     1       8.767  10.613   5.501  0.00  0.00    +0.000 F 
ATOM     35  F   UNL     1       9.918   9.026   6.596  0.00  0.00    +0.000 F 
ENDBRANCH  31  32
ENDBRANCH  30  31
ENDBRANCH   8  30
TORSDOF 9
ENDMDL
MODEL 2
REMARK VINA RESULT:    -5.454      1.993      4.879
REMARK INTER + INTRA:         -10.902
REMARK INTER:                  -7.872
REMARK INTRA:                  -3.030
REMARK UNBOUND:                -2.578
REMARK  Name = emap3_Bn_OCH2CF3
REMARK  10 active torsions:
REMARK  status: ('A' for Active; 'I' for Inactive)
REMARK    1  A    between atoms: C_1  and  C_2
REMARK    2  A    between atoms: C_2  and  N_3
REMARK    3  A    between atoms: N_3  and  C_4
REMARK    4  A    between atoms: C_4  and  C_5
REMARK    5  A    between atoms: C_11  and  C_13
REMARK    6  A    between atoms: C_13  and  N_14
REMARK    7  A    between atoms: C_19  and  C_21
REMARK    8  A    between atoms: N_27  and  C_30
REMARK    9  A    between atoms: C_30  and  O_31
REMARK   10  A    between atoms: O_31  and  C_32
REMARK                            x       y       z     vdW  Elec       q    Type
REMARK                         _______ _______ _______ _____ _____    ______ ____
ROOT
ATOM      1  N   UNL     1       6.610  13.186   9.283  0.00  0.00    +0.000 N 
ATOM      2  C   UNL     1       5.321  13.206   9.664  0.00  0.00    +0.000 A 
ATOM      3  C   UNL     1       5.080  12.196  10.538  0.00  0.00    +0.000 A 
ATOM      4  C   UNL     1       3.804  11.991  11.037  0.00  0.00    +0.000 A 
ATOM      5  N   UNL     1       2.824  12.846  10.618  0.00  0.00    +0.000 NA
ATOM      6  C   UNL     1       3.080  13.867   9.731  0.00  0.00    +0.000 A 
ATOM      7  N   UNL     1       4.348  14.047   9.240  0.00  0.00    +0.000 NA
ATOM      8  N   UNL     1       6.216  11.504  10.744  0.00  0.00    +0.000 N 
ATOM      9  C   UNL     1       7.126  12.122   9.950  0.00  0.00    +0.000 A 
ATOM     10  O   UNL     1       8.318  11.733   9.826  0.00  0.00    +0.000 OA
ENDROOT
BRANCH   6  11
ATOM     11  C   UNL     1       1.990  14.764   9.303  0.00  0.00    +0.000 A 
ATOM     12  C   UNL     1       2.184  16.153   9.275  0.00  0.00    +0.000 A 
ATOM     13  C   UNL     1       1.151  17.004   8.869  0.00  0.00    +0.000 A 
ATOM     14  C   UNL     1      -0.083  16.471   8.486  0.00  0.00    +0.000 A 
ATOM     15  C   UNL     1      -0.285  15.089   8.509  0.00  0.00    +0.000 A 
ATOM     16  C   UNL     1       0.748  14.238   8.916  0.00  0.00    +0.000 A 
ENDBRANCH   6  11
BRANCH   1  17
ATOM     17  C   UNL     1       7.259  14.041   8.296  0.00  0.00    +0.000 C 
BRANCH  17  19
ATOM     18  N   UNL     1       6.279  13.973   5.936  0.00  0.00    +0.000 N 
ATOM     19  C   UNL     1       7.170  13.431   6.929  0.00  0.00    +0.000 C 
ATOM     20  O   UNL     1       7.863  12.411   6.666  0.00  0.00    +0.000 OA
BRANCH  18  22
ATOM     21  C   UNL     1       7.224  14.214   3.697  0.00  0.00    +0.000 C 
ATOM     22  C   UNL     1       6.263  13.439   4.581  0.00  0.00    +0.000 C 
ENDBRANCH  18  22
BRANCH  18  23
ATOM     23  C   UNL     1       5.425  15.120   6.229  0.00  0.00    +0.000 C 
BRANCH  23  24
ATOM     24  C   UNL     1       3.995  14.822   5.916  0.00  0.00    +0.000 A 
ATOM     25  C   UNL     1       3.077  15.858   5.705  0.00  0.00    +0.000 A 
ATOM     26  C   UNL     1       1.746  15.564   5.397  0.00  0.00    +0.000 A 
ATOM     27  C   UNL     1       1.330  14.233   5.291  0.00  0.00    +0.000 A 
ATOM     28  C   UNL     1       2.247  13.195   5.492  0.00  0.00    +0.000 A 
ATOM     29  C   UNL     1       3.578  13.490   5.802  0.00  0.00    +0.000 A 
ENDBRANCH  23  24
ENDBRANCH  18  23
ENDBRANCH  17  19
ENDBRANCH   1  17
BRANCH   8  30
ATOM     30  C   UNL     1       6.393  10.290  11.527  0.00  0.00    +0.000 C 
BRANCH  30  31
ATOM     31  O   UNL     1       5.831   9.203  10.842  0.00  0.00    +0.000 OA
BRANCH  31  32
ATOM     32  C   UNL     1       6.885   8.417  10.339  0.00  0.00    +0.000 C 
ATOM     33  F   UNL     1       6.625   7.066  10.523  0.00  0.00    +0.000 F 
ATOM     34  F   UNL     1       7.005   8.655   8.983  0.00  0.00    +0.000 F 
ATOM     35  F   UNL     1       8.085   8.751  10.949  0.00  0.00    +0.000 F 
ENDBRANCH  31  32
ENDBRANCH  30  31
ENDBRANCH   8  30
TORSDOF 9
ENDMDL
MODEL 3
REMARK VINA RESULT:    -5.323      3.343      7.205
REMARK INTER + INTRA:         -10.703
REMARK INTER:                  -7.710
REMARK INTRA:                  -2.992
REMARK UNBOUND:                -2.578
REMARK  Name = emap3_Bn_OCH2CF3
REMARK  10 active torsions:
REMARK  status: ('A' for Active; 'I' for Inactive)
REMARK    1  A    between atoms: C_1  and  C_2
REMARK    2  A    between atoms: C_2  and  N_3
REMARK    3  A    between atoms: N_3  and  C_4
REMARK    4  A    between atoms: C_4  and  C_5
REMARK    5  A    between atoms: C_11  and  C_13
REMARK    6  A    between atoms: C_13  and  N_14
REMARK    7  A    between atoms: C_19  and  C_21
REMARK    8  A    between atoms: N_27  and  C_30
REMARK    9  A    between atoms: C_30  and  O_31
REMARK   10  A    between atoms: O_31  and  C_32
REMARK                            x       y       z     vdW  Elec       q    Type
REMARK                         _______ _______ _______ _____ _____    ______ ____
ROOT
ATOM      1  N   UNL     1       5.735  13.577   8.987  0.00  0.00    +0.000 N 
ATOM      2  C   UNL     1       6.172  13.531   7.718  0.00  0.00    +0.000 A 
ATOM      3  C   UNL     1       5.162  13.846   6.867  0.00  0.00    +0.000 A 
ATOM      4  C   UNL     1       5.367  13.823   5.497  0.00  0.00    +0.000 A 
ATOM      5  N   UNL     1       6.614  13.482   5.057  0.00  0.00    +0.000 NA
ATOM      6  C   UNL     1       7.631  13.163   5.928  0.00  0.00    +0.000 A 
ATOM      7  N   UNL     1       7.406  13.182   7.281  0.00  0.00    +0.000 NA
ATOM      8  N   UNL     1       4.049  14.108   7.575  0.00  0.00    +0.000 N 
ATOM      9  C   UNL     1       4.427  13.917   8.865  0.00  0.00    +0.000 A 
ATOM     10  O   UNL     1       3.638  14.021   9.842  0.00  0.00    +0.000 OA
ENDROOT
BRANCH   6  11
ATOM     11  C   UNL     1       8.962  12.797   5.408  0.00  0.00    +0.000 A 
ATOM     12  C   UNL     1      10.071  12.747   6.267  0.00  0.00    +0.000 A 
ATOM     13  C   UNL     1      11.332  12.399   5.774  0.00  0.00    +0.000 A 
ATOM     14  C   UNL     1      11.494  12.097   4.420  0.00  0.00    +0.000 A 
ATOM     15  C   UNL     1      10.396  12.144   3.557  0.00  0.00    +0.000 A 
ATOM     16  C   UNL     1       9.134  12.492   4.050  0.00  0.00    +0.000 A 
ENDBRANCH   6  11
BRANCH   1  17
ATOM     17  C   UNL     1       6.472  13.227  10.195  0.00  0.00    +0.000 C 
BRANCH  17  19
ATOM     18  N   UNL     1       7.360  10.839  10.398  0.00  0.00    +0.000 N 
ATOM     19  C   UNL     1       6.279  11.779  10.532  0.00  0.00    +0.000 C 
ATOM     20  O   UNL     1       5.140  11.384  10.906  0.00  0.00    +0.000 OA
BRANCH  18  22
ATOM     21  C   UNL     1       7.888   9.217  12.145  0.00  0.00    +0.000 C 
ATOM     22  C   UNL     1       7.197   9.452  10.815  0.00  0.00    +0.000 C 
ENDBRANCH  18  22
BRANCH  18  23
ATOM     23  C   UNL     1       8.673  11.257   9.916  0.00  0.00    +0.000 C 
BRANCH  23  24
ATOM     24  C   UNL     1       9.145  10.377   8.805  0.00  0.00    +0.000 A 
ATOM     25  C   UNL     1       8.265   9.962   7.797  0.00  0.00    +0.000 A 
ATOM     26  C   UNL     1       8.725   9.153   6.754  0.00  0.00    +0.000 A 
ATOM     27  C   UNL     1      10.067   8.762   6.712  0.00  0.00    +0.000 A 
ATOM     28  C   UNL     1      10.950   9.183   7.712  0.00  0.00    +0.000 A 
ATOM     29  C   UNL     1      10.490   9.991   8.756  0.00  0.00    +0.000 A 
ENDBRANCH  23  24
ENDBRANCH  18  23
ENDBRANCH  17  19
ENDBRANCH   1  17
BRANCH   8  30
ATOM     30  C   UNL     1       2.714  14.393   7.070  0.00  0.00    +0.000 C 
BRANCH  30  31
ATOM     31  O   UNL     1       2.035  13.188   6.832  0.00  0.00    +0.000 OA
BRANCH  31  32
ATOM     32  C   UNL     1       1.540  13.223   5.515  0.00  0.00    +0.000 C 
ATOM     33  F   UNL     1       0.155  13.301   5.509  0.00  0.00    +0.000 F 
ATOM     34  F   UNL     1       2.041  14.347   4.885  0.00  0.00    +0.000 F 
ATOM     35  F   UNL     1       1.950  12.105   4.804  0.00  0.00    +0.000 F 
ENDBRANCH  31  32
ENDBRANCH  30  31
ENDBRANCH   8  30
TORSDOF 9
ENDMDL
