MODEL 1
REMARK VINA RESULT:    -6.195      0.000      0.000
REMARK INTER + INTRA:         -10.878
REMARK INTER:                  -9.093
REMARK INTRA:                  -1.786
REMARK UNBOUND:                -1.786
REMARK  Name = emap3_Bn-3F_CH2CH2CF3
REMARK  9 active torsions:
REMARK  status: ('A' for Active; 'I' for Inactive)
REMARK    1  A    between atoms: C_1  and  C_2
REMARK    2  A    between atoms: C_2  and  N_3
REMARK    3  A    between atoms: N_3  and  C_4
REMARK    4  A    between atoms: C_4  and  C_5
REMARK    5  A    between atoms: C_12  and  C_14
REMARK    6  A    between atoms: C_14  and  N_15
REMARK    7  A    between atoms: C_20  and  C_22
REMARK    8  A    between atoms: N_28  and  C_31
REMARK    9  A    between atoms: C_31  and  C_32
REMARK                            x       y       z     vdW  Elec       q    Type
REMARK                         _______ _______ _______ _____ _____    ______ ____
ROOT
ATOM      1  N   UNL     1       6.895  12.941   9.148  0.00  0.00    +0.000 N 
ATOM      2  C   UNL     1       7.353  12.604   7.931  0.00  0.00    +0.000 A 
ATOM      3  C   UNL     1       7.977  11.400   7.987  0.00  0.00    +0.000 A 
ATOM      4  C   UNL     1       8.525  10.840   6.844  0.00  0.00    +0.000 A 
ATOM      5  N   UNL     1       8.405  11.548   5.683  0.00  0.00    +0.000 NA
ATOM      6  C   UNL     1       7.767  12.767   5.635  0.00  0.00    +0.000 A 
ATOM      7  N   UNL     1       7.231  13.304   6.777  0.00  0.00    +0.000 NA
ATOM      8  N   UNL     1       7.929  10.930   9.247  0.00  0.00    +0.000 N 
ATOM      9  C   UNL     1       7.260  11.895   9.932  0.00  0.00    +0.000 A 
ATOM     10  O   UNL     1       6.998  11.821  11.163  0.00  0.00    +0.000 OA
ENDROOT
BRANCH   6  11
ATOM     11  C   UNL     1       7.658  13.494   4.356  0.00  0.00    +0.000 A 
ATOM     12  C   UNL     1       7.830  12.820   3.139  0.00  0.00    +0.000 A 
ATOM     13  C   UNL     1       7.728  13.510   1.927  0.00  0.00    +0.000 A 
ATOM     14  C   UNL     1       7.452  14.880   1.924  0.00  0.00    +0.000 A 
ATOM     15  C   UNL     1       7.279  15.559   3.132  0.00  0.00    +0.000 A 
ATOM     16  C   UNL     1       7.382  14.869   4.344  0.00  0.00    +0.000 A 
ENDBRANCH   6  11
BRANCH   8  17
ATOM     17  C   UNL     1       8.488   9.686   9.765  0.00  0.00    +0.000 C 
BRANCH  17  18
ATOM     18  C   UNL     1       7.479   8.549   9.663  0.00  0.00    +0.000 C 
ATOM     19  F   UNL     1       8.059   7.388  10.139  0.00  0.00    +0.000 F 
ATOM     20  F   UNL     1       6.359   8.838  10.419  0.00  0.00    +0.000 F 
ATOM     21  F   UNL     1       7.109   8.361   8.343  0.00  0.00    +0.000 F 
ENDBRANCH  17  18
ENDBRANCH   8  17
BRANCH   1  22
ATOM     22  C   UNL     1       6.127  14.120   9.531  0.00  0.00    +0.000 C 
BRANCH  22  24
ATOM     23  N   UNL     1       3.770  14.788   8.812  0.00  0.00    +0.000 N 
ATOM     24  C   UNL     1       4.657  13.847   9.443  0.00  0.00    +0.000 C 
ATOM     25  O   UNL     1       4.196  12.797   9.966  0.00  0.00    +0.000 OA
BRANCH  23  27
ATOM     26  C   UNL     1       4.733  15.870   6.846  0.00  0.00    +0.000 C 
ATOM     27  C   UNL     1       4.259  16.052   8.276  0.00  0.00    +0.000 C 
ENDBRANCH  23  27
BRANCH  23  28
ATOM     28  C   UNL     1       2.328  14.563   8.829  0.00  0.00    +0.000 C 
BRANCH  28  29
ATOM     29  C   UNL     1       1.818  14.336   7.446  0.00  0.00    +0.000 A 
ATOM     30  C   UNL     1       2.213  13.201   6.730  0.00  0.00    +0.000 A 
ATOM     31  C   UNL     1       1.717  12.978   5.441  0.00  0.00    +0.000 A 
ATOM     32  F   UNL     1       2.104  11.880   4.748  0.00  0.00    +0.000 F 
ATOM     33  C   UNL     1       0.822  13.888   4.869  0.00  0.00    +0.000 A 
ATOM     34  C   UNL     1       0.422  15.019   5.586  0.00  0.00    +0.000 A 
ATOM     35  C   UNL     1       0.918  15.242   6.874  0.00  0.00    +0.000 A 
ENDBRANCH  28  29
ENDBRANCH  23  28
ENDBRANCH  22  24
ENDBRANCH   1  22
TORSDOF 8
ENDMDL
MODEL 2
REMARK VINA RESULT:    -6.178      2.590      5.539
REMARK INTER + INTRA:         -10.853
REMARK INTER:                  -9.212
REMARK INTRA:                  -1.641
REMARK UNBOUND:                -1.786
REMARK  Name = emap3_Bn-3F_CH2CH2CF3
REMARK  9 active torsions:
REMARK  status: ('A' for Active; 'I' for Inactive)
REMARK    1  A    between atoms: C_1  and  C_2
REMARK    2  A    between atoms: C_2  and  N_3
REMARK    3  A    between atoms: N_3  and  C_4
REMARK    4  A    between atoms: C_4  and  C_5
REMARK    5  A    between atoms: C_12  and  C_14
REMARK    6  A    between atoms: C_14  and  N_15
REMARK    7  A    between atoms: C_20  and  C_22
REMARK    8  A    between atoms: N_28  and  C_31
REMARK    9  A    between atoms: C_31  and  C_32
REMARK                            x       y       z     vdW  Elec       q    Type
REMARK                         _______ _______ _______ _____ _____    ______ ____
ROOT
ATOM      1  N   UNL     1       7.799  13.130   8.003  0.00  0.00    +0.000 N 
ATOM      2  C   UNL     1       8.065  11.820   7.862  0.00  0.00    +0.000 A 
ATOM      3  C   UNL     1       8.556  11.579   6.619  0.00  0.00    +0.000 A 
ATOM      4  C   UNL     1       8.913  10.293   6.244  0.00  0.00    +0.000 A 
ATOM      5  N   UNL     1       8.749   9.304   7.172  0.00  0.00    +0.000 NA
ATOM      6  C   UNL     1       8.254   9.560   8.430  0.00  0.00    +0.000 A 
ATOM      7  N   UNL     1       7.907  10.839   8.782  0.00  0.00    +0.000 NA
ATOM      8  N   UNL     1       8.622  12.734   5.933  0.00  0.00    +0.000 N 
ATOM      9  C   UNL     1       8.155  13.663   6.807  0.00  0.00    +0.000 A 
ATOM     10  O   UNL     1       8.068  14.891   6.538  0.00  0.00    +0.000 OA
ENDROOT
BRANCH   6  11
ATOM     11  C   UNL     1       8.098   8.459   9.400  0.00  0.00    +0.000 A 
ATOM     12  C   UNL     1       6.883   8.272  10.074  0.00  0.00    +0.000 A 
ATOM     13  C   UNL     1       6.736   7.229  10.994  0.00  0.00    +0.000 A 
ATOM     14  C   UNL     1       7.805   6.365  11.246  0.00  0.00    +0.000 A 
ATOM     15  C   UNL     1       9.019   6.543  10.579  0.00  0.00    +0.000 A 
ATOM     16  C   UNL     1       9.165   7.586   9.659  0.00  0.00    +0.000 A 
ENDBRANCH   6  11
BRANCH   8  17
ATOM     17  C   UNL     1       9.070  12.939   4.559  0.00  0.00    +0.000 C 
BRANCH  17  18
ATOM     18  C   UNL     1       7.885  13.078   3.612  0.00  0.00    +0.000 C 
ATOM     19  F   UNL     1       6.791  12.437   4.163  0.00  0.00    +0.000 F 
ATOM     20  F   UNL     1       7.579  14.413   3.426  0.00  0.00    +0.000 F 
ATOM     21  F   UNL     1       8.181  12.497   2.393  0.00  0.00    +0.000 F 
ENDBRANCH  17  18
ENDBRANCH   8  17
BRANCH   1  22
ATOM     22  C   UNL     1       7.307  13.830   9.184  0.00  0.00    +0.000 C 
BRANCH  22  24
ATOM     23  N   UNL     1       4.984  14.809   8.778  0.00  0.00    +0.000 N 
ATOM     24  C   UNL     1       5.814  13.741   9.269  0.00  0.00    +0.000 C 
ATOM     25  O   UNL     1       5.290  12.734   9.816  0.00  0.00    +0.000 OA
BRANCH  23  27
ATOM     26  C   UNL     1       4.674  17.217   8.524  0.00  0.00    +0.000 C 
ATOM     27  C   UNL     1       5.562  16.026   8.220  0.00  0.00    +0.000 C 
ENDBRANCH  23  27
BRANCH  23  28
ATOM     28  C   UNL     1       3.538  14.760   8.965  0.00  0.00    +0.000 C 
BRANCH  28  29
ATOM     29  C   UNL     1       2.895  13.973   7.872  0.00  0.00    +0.000 A 
ATOM     30  C   UNL     1       1.814  13.132   8.156  0.00  0.00    +0.000 A 
ATOM     31  C   UNL     1       1.198  12.412   7.127  0.00  0.00    +0.000 A 
ATOM     32  F   UNL     1       0.153  11.595   7.404  0.00  0.00    +0.000 F 
ATOM     33  C   UNL     1       1.661  12.535   5.813  0.00  0.00    +0.000 A 
ATOM     34  C   UNL     1       2.738  13.379   5.528  0.00  0.00    +0.000 A 
ATOM     35  C   UNL     1       3.353  14.099   6.556  0.00  0.00    +0.000 A 
ENDBRANCH  28  29
ENDBRANCH  23  28
ENDBRANCH  22  24
ENDBRANCH   1  22
TORSDOF 8
ENDMDL
MODEL 3
REMARK VINA RESULT:    -6.152      2.511      5.276
REMARK INTER + INTRA:         -10.816
REMARK INTER:                  -9.078
REMARK INTRA:                  -1.737
REMARK UNBOUND:                -1.786
REMARK  Name = emap3_Bn-3F_CH2CH2CF3
REMARK  9 active torsions:
REMARK  status: ('A' for Active; 'I' for Inactive)
REMARK    1  A    between atoms: C_1  and  C_2
REMARK    2  A    between atoms: C_2  and  N_3
REMARK    3  A    between atoms: N_3  and  C_4
REMARK    4  A    between atoms: C_4  and  C_5
REMARK    5  A    between atoms: C_12  and  C_14
REMARK    6  A    between atoms: C_14  and  N_15
REMARK    7  A    between atoms: C_20  and  C_22
REMARK    8  A    between atoms: N_28  and  C_31
REMARK    9  A    between atoms: C_31  and  C_32
REMARK                            x       y       z     vdW  Elec       q    Type
REMARK                         _______ _______ _______ _____ _____    ______ ____
ROOT
ATOM      1  N   UNL     1       7.215  13.679   7.838  0.00  0.00    +0.000 N 
ATOM      2  C   UNL     1       7.674  12.436   7.617  0.00  0.00    +0.000 A 
ATOM      3  C   UNL     1       8.204  12.352   6.370  0.00  0.00    +0.000 A 
ATOM      4  C   UNL     1       8.753  11.162   5.920  0.00  0.00    +0.000 A 
ATOM      5  N   UNL     1       8.732  10.100   6.779  0.00  0.00    +0.000 NA
ATOM      6  C   UNL     1       8.195  10.196   8.042  0.00  0.00    +0.000 A 
ATOM      7  N   UNL     1       7.658  11.384   8.470  0.00  0.00    +0.000 NA
ATOM      8  N   UNL     1       8.103  13.547   5.760  0.00  0.00    +0.000 N 
ATOM      9  C   UNL     1       7.496  14.337   6.684  0.00  0.00    +0.000 A 
ATOM     10  O   UNL     1       7.228  15.554   6.493  0.00  0.00    +0.000 OA
ENDROOT
BRANCH   6  11
ATOM     11  C   UNL     1       8.198   9.024   8.937  0.00  0.00    +0.000 A 
ATOM     12  C   UNL     1       9.357   8.249   9.089  0.00  0.00    +0.000 A 
ATOM     13  C   UNL     1       9.360   7.137   9.937  0.00  0.00    +0.000 A 
ATOM     14  C   UNL     1       8.202   6.792  10.640  0.00  0.00    +0.000 A 
ATOM     15  C   UNL     1       7.044   7.557  10.495  0.00  0.00    +0.000 A 
ATOM     16  C   UNL     1       7.041   8.670   9.647  0.00  0.00    +0.000 A 
ENDBRANCH   6  11
BRANCH   8  17
ATOM     17  C   UNL     1       8.525  13.907   4.410  0.00  0.00    +0.000 C 
BRANCH  17  18
ATOM     18  C   UNL     1       7.465  13.524   3.386  0.00  0.00    +0.000 C 
ATOM     19  F   UNL     1       6.291  13.213   4.047  0.00  0.00    +0.000 F 
ATOM     20  F   UNL     1       7.232  14.580   2.525  0.00  0.00    +0.000 F 
ATOM     21  F   UNL     1       7.880  12.421   2.662  0.00  0.00    +0.000 F 
ENDBRANCH  17  18
ENDBRANCH   8  17
BRANCH   1  22
ATOM     22  C   UNL     1       6.616  14.219   9.052  0.00  0.00    +0.000 C 
BRANCH  22  24
ATOM     23  N   UNL     1       4.158  14.743   8.597  0.00  0.00    +0.000 N 
ATOM     24  C   UNL     1       5.163  13.862   9.131  0.00  0.00    +0.000 C 
ATOM     25  O   UNL     1       4.824  12.795   9.710  0.00  0.00    +0.000 OA
BRANCH  23  27
ATOM     26  C   UNL     1       4.053  17.165   8.891  0.00  0.00    +0.000 C 
ATOM     27  C   UNL     1       4.511  16.025   8.000  0.00  0.00    +0.000 C 
ENDBRANCH  23  27
BRANCH  23  28
ATOM     28  C   UNL     1       2.743  14.437   8.775  0.00  0.00    +0.000 C 
BRANCH  28  29
ATOM     29  C   UNL     1       2.071  14.279   7.453  0.00  0.00    +0.000 A 
ATOM     30  C   UNL     1       2.321  13.149   6.669  0.00  0.00    +0.000 A 
ATOM     31  C   UNL     1       1.673  12.992   5.439  0.00  0.00    +0.000 A 
ATOM     32  F   UNL     1       1.919  11.897   4.679  0.00  0.00    +0.000 F 
ATOM     33  C   UNL     1       0.771  13.964   4.995  0.00  0.00    +0.000 A 
ATOM     34  C   UNL     1       0.516  15.091   5.781  0.00  0.00    +0.000 A 
ATOM     35  C   UNL     1       1.163  15.248   7.010  0.00  0.00    +0.000 A 
ENDBRANCH  28  29
ENDBRANCH  23  28
ENDBRANCH  22  24
ENDBRANCH   1  22
TORSDOF 8
ENDMDL
