MODEL 1
REMARK VINA RESULT:    -5.136      0.000      0.000
REMARK INTER + INTRA:         -10.039
REMARK INTER:                  -7.538
REMARK INTRA:                  -2.501
REMARK UNBOUND:                -2.501
REMARK  Name = emap3_Bn-3F_4OMe_CH2CHF2
REMARK  10 active torsions:
REMARK  status: ('A' for Active; 'I' for Inactive)
REMARK    1  A    between atoms: C_1  and  C_2
REMARK    2  A    between atoms: C_2  and  N_3
REMARK    3  A    between atoms: N_3  and  C_4
REMARK    4  A    between atoms: C_4  and  C_5
REMARK    5  A    between atoms: C_10  and  O_11
REMARK    6  A    between atoms: O_11  and  C_12
REMARK    7  A    between atoms: C_14  and  C_16
REMARK    8  A    between atoms: C_16  and  N_17
REMARK    9  A    between atoms: C_22  and  C_24
REMARK   10  A    between atoms: N_30  and  C_33
REMARK                            x       y       z     vdW  Elec       q    Type
REMARK                         _______ _______ _______ _____ _____    ______ ____
ROOT
ATOM      1  N   UNL     1       6.841  14.149   8.691  0.00  0.00    +0.000 N 
ATOM      2  C   UNL     1       6.143  13.869   7.578  0.00  0.00    +0.000 A 
ATOM      3  C   UNL     1       6.911  13.150   6.720  0.00  0.00    +0.000 A 
ATOM      4  C   UNL     1       6.409  12.764   5.486  0.00  0.00    +0.000 A 
ATOM      5  N   UNL     1       5.128  13.135   5.189  0.00  0.00    +0.000 NA
ATOM      6  C   UNL     1       4.359  13.866   6.066  0.00  0.00    +0.000 A 
ATOM      7  N   UNL     1       4.876  14.241   7.279  0.00  0.00    +0.000 NA
ATOM      8  N   UNL     1       8.126  12.953   7.265  0.00  0.00    +0.000 N 
ATOM      9  C   UNL     1       8.053  13.584   8.464  0.00  0.00    +0.000 A 
ATOM     10  O   UNL     1       9.014  13.646   9.278  0.00  0.00    +0.000 OA
ENDROOT
BRANCH   6  11
ATOM     11  C   UNL     1       2.983  14.246   5.697  0.00  0.00    +0.000 A 
ATOM     12  C   UNL     1       2.057  13.268   5.304  0.00  0.00    +0.000 A 
ATOM     13  C   UNL     1       0.751  13.628   4.956  0.00  0.00    +0.000 A 
ATOM     14  C   UNL     1       0.362  14.969   4.999  0.00  0.00    +0.000 A 
ATOM     15  C   UNL     1       1.277  15.950   5.390  0.00  0.00    +0.000 A 
ATOM     16  C   UNL     1       2.582  15.590   5.738  0.00  0.00    +0.000 A 
ENDBRANCH   6  11
BRANCH   8  17
ATOM     17  C   UNL     1       9.279  12.272   6.689  0.00  0.00    +0.000 C 
ATOM     18  F   UNL     1       9.677  12.917   5.533  0.00  0.00    +0.000 F 
ATOM     19  F   UNL     1       8.957  10.958   6.404  0.00  0.00    +0.000 F 
ENDBRANCH   8  17
BRANCH   1  20
ATOM     20  C   UNL     1       6.426  14.949   9.838  0.00  0.00    +0.000 C 
BRANCH  20  22
ATOM     21  N   UNL     1       4.101  15.127  10.879  0.00  0.00    +0.000 N 
ATOM     22  C   UNL     1       5.242  14.330  10.518  0.00  0.00    +0.000 C 
ATOM     23  O   UNL     1       5.240  13.089  10.738  0.00  0.00    +0.000 OA
BRANCH  21  25
ATOM     24  C   UNL     1       4.069  17.358  11.871  0.00  0.00    +0.000 C 
ATOM     25  C   UNL     1       4.049  16.554  10.584  0.00  0.00    +0.000 C 
ENDBRANCH  21  25
BRANCH  21  26
ATOM     26  C   UNL     1       2.904  14.499  11.427  0.00  0.00    +0.000 C 
BRANCH  26  27
ATOM     27  C   UNL     1       1.722  14.748  10.545  0.00  0.00    +0.000 A 
ATOM     28  C   UNL     1       1.583  14.068   9.327  0.00  0.00    +0.000 A 
ATOM     29  F   UNL     1       2.505  13.156   8.933  0.00  0.00    +0.000 F 
ATOM     30  C   UNL     1       0.478  14.322   8.509  0.00  0.00    +0.000 A 
ATOM     31  C   UNL     1      -0.488  15.252   8.903  0.00  0.00    +0.000 A 
ATOM     32  C   UNL     1      -0.356  15.936  10.122  0.00  0.00    +0.000 A 
ATOM     33  C   UNL     1       0.752  15.678  10.937  0.00  0.00    +0.000 A 
BRANCH  32  34
ATOM     34  O   UNL     1      -1.303  16.871  10.545  0.00  0.00    +0.000 OA
ATOM     35  C   UNL     1      -1.676  17.996   9.759  0.00  0.00    +0.000 C 
ENDBRANCH  32  34
ENDBRANCH  26  27
ENDBRANCH  21  26
ENDBRANCH  20  22
ENDBRANCH   1  20
TORSDOF 8
ENDMDL
MODEL 2
REMARK VINA RESULT:    -4.887      3.074      4.467
REMARK INTER + INTRA:          -9.673
REMARK INTER:                  -7.084
REMARK INTRA:                  -2.589
REMARK UNBOUND:                -2.501
REMARK  Name = emap3_Bn-3F_4OMe_CH2CHF2
REMARK  10 active torsions:
REMARK  status: ('A' for Active; 'I' for Inactive)
REMARK    1  A    between atoms: C_1  and  C_2
REMARK    2  A    between atoms: C_2  and  N_3
REMARK    3  A    between atoms: N_3  and  C_4
REMARK    4  A    between atoms: C_4  and  C_5
REMARK    5  A    between atoms: C_10  and  O_11
REMARK    6  A    between atoms: O_11  and  C_12
REMARK    7  A    between atoms: C_14  and  C_16
REMARK    8  A    between atoms: C_16  and  N_17
REMARK    9  A    between atoms: C_22  and  C_24
REMARK   10  A    between atoms: N_30  and  C_33
REMARK                            x       y       z     vdW  Elec       q    Type
REMARK                         _______ _______ _______ _____ _____    ______ ____
ROOT
ATOM      1  N   UNL     1       5.552  15.884   6.794  0.00  0.00    +0.000 N 
ATOM      2  C   UNL     1       4.724  16.860   6.385  0.00  0.00    +0.000 A 
ATOM      3  C   UNL     1       5.281  18.073   6.634  0.00  0.00    +0.000 A 
ATOM      4  C   UNL     1       4.595  19.236   6.318  0.00  0.00    +0.000 A 
ATOM      5  N   UNL     1       3.359  19.098   5.753  0.00  0.00    +0.000 NA
ATOM      6  C   UNL     1       2.804  17.863   5.507  0.00  0.00    +0.000 A 
ATOM      7  N   UNL     1       3.496  16.725   5.831  0.00  0.00    +0.000 NA
ATOM      8  N   UNL     1       6.484  17.903   7.213  0.00  0.00    +0.000 N 
ATOM      9  C   UNL     1       6.616  16.555   7.305  0.00  0.00    +0.000 A 
ATOM     10  O   UNL     1       7.616  15.986   7.819  0.00  0.00    +0.000 OA
ENDROOT
BRANCH   6  11
ATOM     11  C   UNL     1       1.464  17.766   4.899  0.00  0.00    +0.000 A 
ATOM     12  C   UNL     1       0.935  18.842   4.169  0.00  0.00    +0.000 A 
ATOM     13  C   UNL     1      -0.334  18.750   3.591  0.00  0.00    +0.000 A 
ATOM     14  C   UNL     1      -1.086  17.582   3.738  0.00  0.00    +0.000 A 
ATOM     15  C   UNL     1      -0.568  16.505   4.463  0.00  0.00    +0.000 A 
ATOM     16  C   UNL     1       0.701  16.597   5.041  0.00  0.00    +0.000 A 
ENDBRANCH   6  11
BRANCH   8  17
ATOM     17  C   UNL     1       7.415  18.919   7.687  0.00  0.00    +0.000 C 
ATOM     18  F   UNL     1       8.623  18.794   7.025  0.00  0.00    +0.000 F 
ATOM     19  F   UNL     1       7.611  18.782   9.049  0.00  0.00    +0.000 F 
ENDBRANCH   8  17
BRANCH   1  20
ATOM     20  C   UNL     1       5.327  14.443   6.776  0.00  0.00    +0.000 C 
BRANCH  20  22
ATOM     21  N   UNL     1       2.912  13.659   7.044  0.00  0.00    +0.000 N 
ATOM     22  C   UNL     1       4.155  14.077   7.635  0.00  0.00    +0.000 C 
ATOM     23  O   UNL     1       4.280  14.103   8.889  0.00  0.00    +0.000 OA
BRANCH  21  25
ATOM     24  C   UNL     1       1.856  12.392   5.244  0.00  0.00    +0.000 C 
ATOM     25  C   UNL     1       2.754  13.562   5.598  0.00  0.00    +0.000 C 
ENDBRANCH  21  25
BRANCH  21  26
ATOM     26  C   UNL     1       1.816  13.188   7.884  0.00  0.00    +0.000 C 
BRANCH  26  27
ATOM     27  C   UNL     1       0.751  14.231   8.002  0.00  0.00    +0.000 A 
ATOM     28  C   UNL     1      -0.565  13.958   7.601  0.00  0.00    +0.000 A 
ATOM     29  F   UNL     1      -0.903  12.737   7.119  0.00  0.00    +0.000 F 
ATOM     30  C   UNL     1      -1.546  14.948   7.707  0.00  0.00    +0.000 A 
ATOM     31  C   UNL     1      -1.218  16.210   8.211  0.00  0.00    +0.000 A 
ATOM     32  C   UNL     1       0.097  16.490   8.615  0.00  0.00    +0.000 A 
ATOM     33  C   UNL     1       1.075  15.496   8.507  0.00  0.00    +0.000 A 
BRANCH  32  34
ATOM     34  O   UNL     1       0.458  17.741   9.123  0.00  0.00    +0.000 OA
ATOM     35  C   UNL     1       1.795  18.223   9.099  0.00  0.00    +0.000 C 
ENDBRANCH  32  34
ENDBRANCH  26  27
ENDBRANCH  21  26
ENDBRANCH  20  22
ENDBRANCH   1  20
TORSDOF 8
ENDMDL
MODEL 3
REMARK VINA RESULT:    -4.877      3.161      7.102
REMARK INTER + INTRA:          -9.659
REMARK INTER:                  -6.866
REMARK INTRA:                  -2.793
REMARK UNBOUND:                -2.501
REMARK  Name = emap3_Bn-3F_4OMe_CH2CHF2
REMARK  10 active torsions:
REMARK  status: ('A' for Active; 'I' for Inactive)
REMARK    1  A    between atoms: C_1  and  C_2
REMARK    2  A    between atoms: C_2  and  N_3
REMARK    3  A    between atoms: N_3  and  C_4
REMARK    4  A    between atoms: C_4  and  C_5
REMARK    5  A    between atoms: C_10  and  O_11
REMARK    6  A    between atoms: O_11  and  C_12
REMARK    7  A    between atoms: C_14  and  C_16
REMARK    8  A    between atoms: C_16  and  N_17
REMARK    9  A    between atoms: C_22  and  C_24
REMARK   10  A    between atoms: N_30  and  C_33
REMARK                            x       y       z     vdW  Elec       q    Type
REMARK                         _______ _______ _______ _____ _____    ______ ____
ROOT
ATOM      1  N   UNL     1       1.196  15.146  12.164  0.00  0.00    +0.000 N 
ATOM      2  C   UNL     1       0.642  15.301  10.949  0.00  0.00    +0.000 A 
ATOM      3  C   UNL     1      -0.385  16.187  11.019  0.00  0.00    +0.000 A 
ATOM      4  C   UNL     1      -1.127  16.489   9.888  0.00  0.00    +0.000 A 
ATOM      5  N   UNL     1      -0.775  15.865   8.725  0.00  0.00    +0.000 NA
ATOM      6  C   UNL     1       0.266  14.966   8.666  0.00  0.00    +0.000 A 
ATOM      7  N   UNL     1       0.984  14.678   9.797  0.00  0.00    +0.000 NA
ATOM      8  N   UNL     1      -0.515  16.622  12.287  0.00  0.00    +0.000 N 
ATOM      9  C   UNL     1       0.459  15.960  12.961  0.00  0.00    +0.000 A 
ATOM     10  O   UNL     1       0.654  16.081  14.201  0.00  0.00    +0.000 OA
ENDROOT
BRANCH   6  11
ATOM     11  C   UNL     1       0.604  14.314   7.388  0.00  0.00    +0.000 A 
ATOM     12  C   UNL     1       1.247  13.067   7.375  0.00  0.00    +0.000 A 
ATOM     13  C   UNL     1       1.567  12.447   6.164  0.00  0.00    +0.000 A 
ATOM     14  C   UNL     1       1.245  13.069   4.955  0.00  0.00    +0.000 A 
ATOM     15  C   UNL     1       0.603  14.310   4.957  0.00  0.00    +0.000 A 
ATOM     16  C   UNL     1       0.284  14.930   6.169  0.00  0.00    +0.000 A 
ENDBRANCH   6  11
BRANCH   8  17
ATOM     17  C   UNL     1      -1.502  17.545  12.833  0.00  0.00    +0.000 C 
ATOM     18  F   UNL     1      -0.950  18.807  12.947  0.00  0.00    +0.000 F 
ATOM     19  F   UNL     1      -1.925  17.105  14.074  0.00  0.00    +0.000 F 
ENDBRANCH   8  17
BRANCH   1  20
ATOM     20  C   UNL     1       2.277  14.249  12.554  0.00  0.00    +0.000 C 
BRANCH  20  22
ATOM     21  N   UNL     1       4.118  13.786  10.845  0.00  0.00    +0.000 N 
ATOM     22  C   UNL     1       3.555  14.626  11.868  0.00  0.00    +0.000 C 
ATOM     23  O   UNL     1       4.117  15.713  12.171  0.00  0.00    +0.000 OA
BRANCH  21  25
ATOM     24  C   UNL     1       4.116  11.357  11.096  0.00  0.00    +0.000 C 
ATOM     25  C   UNL     1       3.460  12.552  10.431  0.00  0.00    +0.000 C 
ENDBRANCH  21  25
BRANCH  21  26
ATOM     26  C   UNL     1       5.293  14.218  10.098  0.00  0.00    +0.000 C 
BRANCH  26  27
ATOM     27  C   UNL     1       4.939  14.505   8.673  0.00  0.00    +0.000 A 
ATOM     28  C   UNL     1       4.166  15.627   8.340  0.00  0.00    +0.000 A 
ATOM     29  F   UNL     1       3.742  16.485   9.300  0.00  0.00    +0.000 F 
ATOM     30  C   UNL     1       3.834  15.874   7.005  0.00  0.00    +0.000 A 
ATOM     31  C   UNL     1       4.271  15.006   6.001  0.00  0.00    +0.000 A 
ATOM     32  C   UNL     1       5.046  13.881   6.326  0.00  0.00    +0.000 A 
ATOM     33  C   UNL     1       5.376  13.638   7.664  0.00  0.00    +0.000 A 
BRANCH  32  34
ATOM     34  O   UNL     1       5.499  12.993   5.347  0.00  0.00    +0.000 OA
ATOM     35  C   UNL     1       6.633  13.262   4.532  0.00  0.00    +0.000 C 
ENDBRANCH  32  34
ENDBRANCH  26  27
ENDBRANCH  21  26
ENDBRANCH  20  22
ENDBRANCH   1  20
TORSDOF 8
ENDMDL
