MODEL 1
REMARK VINA RESULT:    -5.200      0.000      0.000
REMARK INTER + INTRA:         -10.929
REMARK INTER:                  -7.631
REMARK INTRA:                  -3.297
REMARK UNBOUND:                -3.297
REMARK  Name = emap_Bn-4OCHF2_Me
REMARK  10 active torsions:
REMARK  status: ('A' for Active; 'I' for Inactive)
REMARK    1  A    between atoms: C_1  and  C_2
REMARK    2  A    between atoms: C_2  and  N_3
REMARK    3  A    between atoms: N_3  and  C_4
REMARK    4  A    between atoms: C_4  and  C_5
REMARK    5  A    between atoms: C_8  and  O_9
REMARK    6  A    between atoms: O_9  and  C_10
REMARK    7  A    between atoms: C_15  and  C_17
REMARK    8  A    between atoms: C_17  and  N_18
REMARK    9  A    between atoms: C_23  and  C_25
REMARK   10  A    between atoms: N_31  and  C_34
REMARK                            x       y       z     vdW  Elec       q    Type
REMARK                         _______ _______ _______ _____ _____    ______ ____
ROOT
ATOM      1  C   UNL     1       7.404  13.372   8.434  0.00  0.00    +0.000 C 
ENDROOT
BRANCH   1   2
ATOM      2  N   UNL     1       6.671  12.622   9.423  0.00  0.00    +0.000 N 
ATOM      3  C   UNL     1       5.353  12.865   9.829  0.00  0.00    +0.000 A 
ATOM      4  C   UNL     1       5.063  11.974  10.842  0.00  0.00    +0.000 A 
ATOM      5  C   UNL     1       3.822  12.031  11.388  0.00  0.00    +0.000 A 
ATOM      6  N   UNL     1       2.911  12.915  10.937  0.00  0.00    +0.000 NA
ATOM      7  C   UNL     1       3.287  13.759   9.934  0.00  0.00    +0.000 A 
ATOM      8  N   UNL     1       4.512  13.787   9.369  0.00  0.00    +0.000 NA
ATOM      9  N   UNL     1       6.187  11.189  11.095  0.00  0.00    +0.000 N 
ATOM     10  C   UNL     1       7.215  11.597  10.222  0.00  0.00    +0.000 A 
ATOM     11  O   UNL     1       8.353  11.171  10.192  0.00  0.00    +0.000 OA
ATOM     12  C   UNL     1       6.314  10.183  12.108  0.00  0.00    +0.000 C 
BRANCH   7  13
ATOM     13  C   UNL     1       2.283  14.735   9.465  0.00  0.00    +0.000 A 
ATOM     14  C   UNL     1       1.004  14.322   9.040  0.00  0.00    +0.000 A 
ATOM     15  C   UNL     1       0.028  15.241   8.648  0.00  0.00    +0.000 A 
ATOM     16  C   UNL     1       0.311  16.603   8.663  0.00  0.00    +0.000 A 
ATOM     17  C   UNL     1       1.575  17.041   9.048  0.00  0.00    +0.000 A 
ATOM     18  C   UNL     1       2.551  16.118   9.438  0.00  0.00    +0.000 A 
ENDBRANCH   7  13
ENDBRANCH   1   2
BRANCH   1  20
ATOM     19  N   UNL     1       6.626  13.539   6.015  0.00  0.00    +0.000 N 
ATOM     20  C   UNL     1       7.300  12.817   7.001  0.00  0.00    +0.000 C 
ATOM     21  O   UNL     1       7.824  11.735   6.714  0.00  0.00    +0.000 OA
BRANCH  19  23
ATOM     22  C   UNL     1       7.238  13.977   3.612  0.00  0.00    +0.000 C 
ATOM     23  C   UNL     1       6.675  13.006   4.646  0.00  0.00    +0.000 C 
ENDBRANCH  19  23
BRANCH  19  24
ATOM     24  C   UNL     1       5.877  14.783   6.241  0.00  0.00    +0.000 C 
BRANCH  24  25
ATOM     25  C   UNL     1       4.380  14.712   5.987  0.00  0.00    +0.000 A 
ATOM     26  C   UNL     1       3.677  13.510   5.817  0.00  0.00    +0.000 A 
ATOM     27  C   UNL     1       2.306  13.505   5.508  0.00  0.00    +0.000 A 
ATOM     28  C   UNL     1       1.606  14.704   5.392  0.00  0.00    +0.000 A 
ATOM     29  C   UNL     1       2.286  15.905   5.589  0.00  0.00    +0.000 A 
ATOM     30  C   UNL     1       3.653  15.911   5.894  0.00  0.00    +0.000 A 
BRANCH  28  31
ATOM     31  O   UNL     1       0.288  14.840   5.060  0.00  0.00    +0.000 OA
BRANCH  31  32
ATOM     32  C   UNL     1      -0.175  16.158   4.832  0.00  0.00    +0.000 C 
ATOM     33  F   UNL     1      -0.779  16.166   3.614  0.00  0.00    +0.000 F 
ATOM     34  F   UNL     1      -1.137  16.455   5.741  0.00  0.00    +0.000 F 
ENDBRANCH  31  32
ENDBRANCH  28  31
ENDBRANCH  24  25
ENDBRANCH  19  24
ENDBRANCH   1  20
TORSDOF 8
ENDMDL
MODEL 2
REMARK VINA RESULT:    -5.183      1.716      4.815
REMARK INTER + INTRA:         -10.905
REMARK INTER:                  -8.151
REMARK INTRA:                  -2.754
REMARK UNBOUND:                -3.297
REMARK  Name = emap_Bn-4OCHF2_Me
REMARK  10 active torsions:
REMARK  status: ('A' for Active; 'I' for Inactive)
REMARK    1  A    between atoms: C_1  and  C_2
REMARK    2  A    between atoms: C_2  and  N_3
REMARK    3  A    between atoms: N_3  and  C_4
REMARK    4  A    between atoms: C_4  and  C_5
REMARK    5  A    between atoms: C_8  and  O_9
REMARK    6  A    between atoms: O_9  and  C_10
REMARK    7  A    between atoms: C_15  and  C_17
REMARK    8  A    between atoms: C_17  and  N_18
REMARK    9  A    between atoms: C_23  and  C_25
REMARK   10  A    between atoms: N_31  and  C_34
REMARK                            x       y       z     vdW  Elec       q    Type
REMARK                         _______ _______ _______ _____ _____    ______ ____
ROOT
ATOM      1  C   UNL     1       6.403  13.493  10.099  0.00  0.00    +0.000 C 
ENDROOT
BRANCH   1   2
ATOM      2  N   UNL     1       7.007  13.255   8.812  0.00  0.00    +0.000 N 
ATOM      3  C   UNL     1       6.354  13.308   7.574  0.00  0.00    +0.000 A 
ATOM      4  C   UNL     1       7.270  12.944   6.608  0.00  0.00    +0.000 A 
ATOM      5  C   UNL     1       6.847  12.929   5.320  0.00  0.00    +0.000 A 
ATOM      6  N   UNL     1       5.584  13.276   5.005  0.00  0.00    +0.000 NA
ATOM      7  C   UNL     1       4.746  13.619   6.026  0.00  0.00    +0.000 A 
ATOM      8  N   UNL     1       5.084  13.621   7.332  0.00  0.00    +0.000 NA
ATOM      9  N   UNL     1       8.485  12.641   7.223  0.00  0.00    +0.000 N 
ATOM     10  C   UNL     1       8.330  12.814   8.613  0.00  0.00    +0.000 A 
ATOM     11  O   UNL     1       9.164  12.592   9.469  0.00  0.00    +0.000 OA
ATOM     12  C   UNL     1       9.673  12.169   6.576  0.00  0.00    +0.000 C 
BRANCH   7  13
ATOM     13  C   UNL     1       3.360  13.978   5.666  0.00  0.00    +0.000 A 
ATOM     14  C   UNL     1       2.420  12.991   5.302  0.00  0.00    +0.000 A 
ATOM     15  C   UNL     1       1.092  13.314   5.014  0.00  0.00    +0.000 A 
ATOM     16  C   UNL     1       0.670  14.638   5.076  0.00  0.00    +0.000 A 
ATOM     17  C   UNL     1       1.581  15.638   5.402  0.00  0.00    +0.000 A 
ATOM     18  C   UNL     1       2.911  15.312   5.687  0.00  0.00    +0.000 A 
ENDBRANCH   7  13
ENDBRANCH   1   2
BRANCH   1  20
ATOM     19  N   UNL     1       4.383  12.508  11.297  0.00  0.00    +0.000 N 
ATOM     20  C   UNL     1       5.610  12.300  10.665  0.00  0.00    +0.000 C 
ATOM     21  O   UNL     1       6.051  11.151  10.551  0.00  0.00    +0.000 OA
BRANCH  19  23
ATOM     22  C   UNL     1       3.080  11.363  13.122  0.00  0.00    +0.000 C 
ATOM     23  C   UNL     1       3.629  11.312  11.700  0.00  0.00    +0.000 C 
ENDBRANCH  19  23
BRANCH  19  24
ATOM     24  C   UNL     1       3.794  13.822  11.587  0.00  0.00    +0.000 C 
BRANCH  24  25
ATOM     25  C   UNL     1       2.566  14.193  10.771  0.00  0.00    +0.000 A 
ATOM     26  C   UNL     1       1.478  14.912  11.289  0.00  0.00    +0.000 A 
ATOM     27  C   UNL     1       0.334  15.162  10.511  0.00  0.00    +0.000 A 
ATOM     28  C   UNL     1       0.270  14.722   9.191  0.00  0.00    +0.000 A 
ATOM     29  C   UNL     1       1.357  14.034   8.655  0.00  0.00    +0.000 A 
ATOM     30  C   UNL     1       2.496  13.782   9.429  0.00  0.00    +0.000 A 
BRANCH  28  31
ATOM     31  O   UNL     1      -0.792  14.866   8.343  0.00  0.00    +0.000 OA
BRANCH  31  32
ATOM     32  C   UNL     1      -1.178  16.191   8.031  0.00  0.00    +0.000 C 
ATOM     33  F   UNL     1      -0.040  16.923   7.909  0.00  0.00    +0.000 F 
ATOM     34  F   UNL     1      -1.778  16.205   6.814  0.00  0.00    +0.000 F 
ENDBRANCH  31  32
ENDBRANCH  28  31
ENDBRANCH  24  25
ENDBRANCH  19  24
ENDBRANCH   1  20
TORSDOF 8
ENDMDL
MODEL 3
REMARK VINA RESULT:    -5.046      3.092      6.504
REMARK INTER + INTRA:         -10.703
REMARK INTER:                  -9.287
REMARK INTRA:                  -1.416
REMARK UNBOUND:                -3.297
REMARK  Name = emap_Bn-4OCHF2_Me
REMARK  10 active torsions:
REMARK  status: ('A' for Active; 'I' for Inactive)
REMARK    1  A    between atoms: C_1  and  C_2
REMARK    2  A    between atoms: C_2  and  N_3
REMARK    3  A    between atoms: N_3  and  C_4
REMARK    4  A    between atoms: C_4  and  C_5
REMARK    5  A    between atoms: C_8  and  O_9
REMARK    6  A    between atoms: O_9  and  C_10
REMARK    7  A    between atoms: C_15  and  C_17
REMARK    8  A    between atoms: C_17  and  N_18
REMARK    9  A    between atoms: C_23  and  C_25
REMARK   10  A    between atoms: N_31  and  C_34
REMARK                            x       y       z     vdW  Elec       q    Type
REMARK                         _______ _______ _______ _____ _____    ______ ____
ROOT
ATOM      1  C   UNL     1       7.038  12.502   6.101  0.00  0.00    +0.000 C 
ENDROOT
BRANCH   1   2
ATOM      2  N   UNL     1       8.330  11.913   5.857  0.00  0.00    +0.000 N 
ATOM      3  C   UNL     1       8.891  10.838   6.557  0.00  0.00    +0.000 A 
ATOM      4  C   UNL     1      10.164  10.641   6.061  0.00  0.00    +0.000 A 
ATOM      5  C   UNL     1      10.896   9.635   6.601  0.00  0.00    +0.000 A 
ATOM      6  N   UNL     1      10.384   8.853   7.571  0.00  0.00    +0.000 NA
ATOM      7  C   UNL     1       9.118   9.124   8.002  0.00  0.00    +0.000 A 
ATOM      8  N   UNL     1       8.344  10.129   7.540  0.00  0.00    +0.000 NA
ATOM      9  N   UNL     1      10.421  11.592   5.073  0.00  0.00    +0.000 N 
ATOM     10  C   UNL     1       9.283  12.412   4.946  0.00  0.00    +0.000 A 
ATOM     11  O   UNL     1       9.163  13.379   4.218  0.00  0.00    +0.000 OA
ATOM     12  C   UNL     1      11.647  11.761   4.351  0.00  0.00    +0.000 C 
BRANCH   7  13
ATOM     13  C   UNL     1       8.578   8.271   9.080  0.00  0.00    +0.000 A 
ATOM     14  C   UNL     1       9.388   7.319   9.735  0.00  0.00    +0.000 A 
ATOM     15  C   UNL     1       8.903   6.547  10.792  0.00  0.00    +0.000 A 
ATOM     16  C   UNL     1       7.588   6.701  11.219  0.00  0.00    +0.000 A 
ATOM     17  C   UNL     1       6.755   7.611  10.573  0.00  0.00    +0.000 A 
ATOM     18  C   UNL     1       7.242   8.380   9.513  0.00  0.00    +0.000 A 
ENDBRANCH   7  13
ENDBRANCH   1   2
BRANCH   1  20
ATOM     19  N   UNL     1       6.276  14.794   6.910  0.00  0.00    +0.000 N 
ATOM     20  C   UNL     1       7.039  13.646   7.133  0.00  0.00    +0.000 C 
ATOM     21  O   UNL     1       7.704  13.547   8.169  0.00  0.00    +0.000 OA
BRANCH  19  23
ATOM     22  C   UNL     1       5.135  15.537   9.028  0.00  0.00    +0.000 C 
ATOM     23  C   UNL     1       6.229  15.785   7.994  0.00  0.00    +0.000 C 
ENDBRANCH  19  23
BRANCH  19  24
ATOM     24  C   UNL     1       5.521  15.082   5.683  0.00  0.00    +0.000 C 
BRANCH  24  25
ATOM     25  C   UNL     1       4.033  14.776   5.731  0.00  0.00    +0.000 A 
ATOM     26  C   UNL     1       3.043  15.757   5.883  0.00  0.00    +0.000 A 
ATOM     27  C   UNL     1       1.685  15.412   5.998  0.00  0.00    +0.000 A 
ATOM     28  C   UNL     1       1.291  14.076   5.934  0.00  0.00    +0.000 A 
ATOM     29  C   UNL     1       2.262  13.094   5.752  0.00  0.00    +0.000 A 
ATOM     30  C   UNL     1       3.615  13.436   5.640  0.00  0.00    +0.000 A 
BRANCH  28  31
ATOM     31  O   UNL     1       0.016  13.605   6.069  0.00  0.00    +0.000 OA
BRANCH  31  32
ATOM     32  C   UNL     1      -0.447  13.401   7.392  0.00  0.00    +0.000 C 
ATOM     33  F   UNL     1      -1.454  14.289   7.606  0.00  0.00    +0.000 F 
ATOM     34  F   UNL     1      -0.997  12.165   7.485  0.00  0.00    +0.000 F 
ENDBRANCH  31  32
ENDBRANCH  28  31
ENDBRANCH  24  25
ENDBRANCH  19  24
ENDBRANCH   1  20
TORSDOF 8
ENDMDL
