MODEL 1
REMARK VINA RESULT:    -5.699      0.000      0.000
REMARK INTER + INTRA:         -10.766
REMARK INTER:                  -8.364
REMARK INTRA:                  -2.401
REMARK UNBOUND:                -2.401
REMARK  Name = emap2_Bn-3,5diF_CH2CH2F
REMARK  9 active torsions:
REMARK  status: ('A' for Active; 'I' for Inactive)
REMARK    1  A    between atoms: C_1  and  C_2
REMARK    2  A    between atoms: C_2  and  N_3
REMARK    3  A    between atoms: N_3  and  C_4
REMARK    4  A    between atoms: C_4  and  C_5
REMARK    5  A    between atoms: C_13  and  C_15
REMARK    6  A    between atoms: C_15  and  N_16
REMARK    7  A    between atoms: C_21  and  C_23
REMARK    8  A    between atoms: N_29  and  C_32
REMARK    9  A    between atoms: C_32  and  C_33
REMARK                            x       y       z     vdW  Elec       q    Type
REMARK                         _______ _______ _______ _____ _____    ______ ____
ROOT
ATOM      1  N   UNL     1       6.919  13.472   8.726  0.00  0.00    +0.000 N 
ATOM      2  C   UNL     1       6.208  13.441   7.518  0.00  0.00    +0.000 A 
ATOM      3  C   UNL     1       7.068  12.961   6.551  0.00  0.00    +0.000 A 
ATOM      4  C   UNL     1       6.578  12.841   5.291  0.00  0.00    +0.000 A 
ATOM      5  N   UNL     1       5.309  13.200   5.012  0.00  0.00    +0.000 NA
ATOM      6  C   UNL     1       4.528  13.666   6.027  0.00  0.00    +0.000 A 
ATOM      7  N   UNL     1       4.940  13.800   7.312  0.00  0.00    +0.000 NA
ATOM      8  N   UNL     1       8.304  12.681   7.136  0.00  0.00    +0.000 N 
ATOM      9  C   UNL     1       8.198  12.924   8.520  0.00  0.00    +0.000 A 
ATOM     10  O   UNL     1       9.055  12.685   9.349  0.00  0.00    +0.000 OA
ENDROOT
BRANCH   6  11
ATOM     11  C   UNL     1       3.145  14.064   5.688  0.00  0.00    +0.000 A 
ATOM     12  C   UNL     1       2.182  13.111   5.299  0.00  0.00    +0.000 A 
ATOM     13  C   UNL     1       0.873  13.475   4.964  0.00  0.00    +0.000 A 
ATOM     14  C   UNL     1       0.492  14.811   5.008  0.00  0.00    +0.000 A 
ATOM     15  C   UNL     1       1.414  15.780   5.390  0.00  0.00    +0.000 A 
ATOM     16  C   UNL     1       2.722  15.408   5.728  0.00  0.00    +0.000 A 
ENDBRANCH   6  11
BRANCH   8  17
ATOM     17  C   UNL     1       9.479  12.180   6.467  0.00  0.00    +0.000 C 
BRANCH  17  18
ATOM     18  C   UNL     1       9.562  10.662   6.440  0.00  0.00    +0.000 C 
ATOM     19  F   UNL     1       8.335  10.146   6.733  0.00  0.00    +0.000 F 
ENDBRANCH  17  18
ENDBRANCH   8  17
BRANCH   1  20
ATOM     20  C   UNL     1       6.332  13.763  10.006  0.00  0.00    +0.000 C 
BRANCH  20  22
ATOM     21  N   UNL     1       4.240  12.764  11.049  0.00  0.00    +0.000 N 
ATOM     22  C   UNL     1       5.544  12.576  10.589  0.00  0.00    +0.000 C 
ATOM     23  O   UNL     1       6.075  11.462  10.628  0.00  0.00    +0.000 OA
BRANCH  21  25
ATOM     24  C   UNL     1       3.102  11.577  12.954  0.00  0.00    +0.000 C 
ATOM     25  C   UNL     1       3.473  11.586  11.474  0.00  0.00    +0.000 C 
ENDBRANCH  21  25
BRANCH  21  26
ATOM     26  C   UNL     1       3.594  14.071  11.194  0.00  0.00    +0.000 C 
BRANCH  26  27
ATOM     27  C   UNL     1       2.253  14.247  10.519  0.00  0.00    +0.000 A 
ATOM     28  C   UNL     1       1.273  14.991  11.196  0.00  0.00    +0.000 A 
ATOM     29  F   UNL     1       1.496  15.381  12.460  0.00  0.00    +0.000 F 
ATOM     30  C   UNL     1       0.088  15.381  10.585  0.00  0.00    +0.000 A 
ATOM     31  C   UNL     1      -0.125  15.033   9.261  0.00  0.00    +0.000 A 
ATOM     32  F   UNL     1      -1.227  15.464   8.635  0.00  0.00    +0.000 F 
ATOM     33  C   UNL     1       0.802  14.262   8.569  0.00  0.00    +0.000 A 
ATOM     34  C   UNL     1       1.982  13.855   9.200  0.00  0.00    +0.000 A 
ENDBRANCH  26  27
ENDBRANCH  21  26
ENDBRANCH  20  22
ENDBRANCH   1  20
TORSDOF 8
ENDMDL
MODEL 2
REMARK VINA RESULT:    -5.516      2.218      5.061
REMARK INTER + INTRA:         -10.498
REMARK INTER:                  -7.653
REMARK INTRA:                  -2.844
REMARK UNBOUND:                -2.401
REMARK  Name = emap2_Bn-3,5diF_CH2CH2F
REMARK  9 active torsions:
REMARK  status: ('A' for Active; 'I' for Inactive)
REMARK    1  A    between atoms: C_1  and  C_2
REMARK    2  A    between atoms: C_2  and  N_3
REMARK    3  A    between atoms: N_3  and  C_4
REMARK    4  A    between atoms: C_4  and  C_5
REMARK    5  A    between atoms: C_13  and  C_15
REMARK    6  A    between atoms: C_15  and  N_16
REMARK    7  A    between atoms: C_21  and  C_23
REMARK    8  A    between atoms: N_29  and  C_32
REMARK    9  A    between atoms: C_32  and  C_33
REMARK                            x       y       z     vdW  Elec       q    Type
REMARK                         _______ _______ _______ _____ _____    ______ ____
ROOT
ATOM      1  N   UNL     1       6.154  13.191   9.434  0.00  0.00    +0.000 N 
ATOM      2  C   UNL     1       4.811  13.368   9.798  0.00  0.00    +0.000 A 
ATOM      3  C   UNL     1       4.581  12.576  10.904  0.00  0.00    +0.000 A 
ATOM      4  C   UNL     1       3.331  12.600  11.433  0.00  0.00    +0.000 A 
ATOM      5  N   UNL     1       2.365  13.357  10.874  0.00  0.00    +0.000 NA
ATOM      6  C   UNL     1       2.679  14.109   9.781  0.00  0.00    +0.000 A 
ATOM      7  N   UNL     1       3.907  14.149   9.206  0.00  0.00    +0.000 NA
ATOM      8  N   UNL     1       5.760  11.913  11.246  0.00  0.00    +0.000 N 
ATOM      9  C   UNL     1       6.778  12.352  10.376  0.00  0.00    +0.000 A 
ATOM     10  O   UNL     1       7.954  12.058  10.456  0.00  0.00    +0.000 OA
ENDROOT
BRANCH   6  11
ATOM     11  C   UNL     1       1.595  14.918   9.183  0.00  0.00    +0.000 A 
ATOM     12  C   UNL     1       1.705  16.318   9.067  0.00  0.00    +0.000 A 
ATOM     13  C   UNL     1       0.682  17.097   8.513  0.00  0.00    +0.000 A 
ATOM     14  C   UNL     1      -0.484  16.491   8.060  0.00  0.00    +0.000 A 
ATOM     15  C   UNL     1      -0.626  15.110   8.156  0.00  0.00    +0.000 A 
ATOM     16  C   UNL     1       0.403  14.336   8.708  0.00  0.00    +0.000 A 
ENDBRANCH   6  11
BRANCH   8  17
ATOM     17  C   UNL     1       5.938  10.977  12.329  0.00  0.00    +0.000 C 
BRANCH  17  18
ATOM     18  C   UNL     1       5.513   9.559  11.981  0.00  0.00    +0.000 C 
ATOM     19  F   UNL     1       6.179   9.159  10.862  0.00  0.00    +0.000 F 
ENDBRANCH  17  18
ENDBRANCH   8  17
BRANCH   1  20
ATOM     20  C   UNL     1       6.830  13.959   8.425  0.00  0.00    +0.000 C 
BRANCH  20  22
ATOM     21  N   UNL     1       6.189  13.747   5.974  0.00  0.00    +0.000 N 
ATOM     22  C   UNL     1       6.895  13.239   7.066  0.00  0.00    +0.000 C 
ATOM     23  O   UNL     1       7.586  12.222   6.956  0.00  0.00    +0.000 OA
BRANCH  21  25
ATOM     24  C   UNL     1       7.277  13.893   3.709  0.00  0.00    +0.000 C 
ATOM     25  C   UNL     1       6.379  13.111   4.663  0.00  0.00    +0.000 C 
ENDBRANCH  21  25
BRANCH  21  26
ATOM     26  C   UNL     1       5.219  14.842   6.052  0.00  0.00    +0.000 C 
BRANCH  26  27
ATOM     27  C   UNL     1       3.765  14.478   5.857  0.00  0.00    +0.000 A 
ATOM     28  C   UNL     1       2.848  15.527   5.674  0.00  0.00    +0.000 A 
ATOM     29  F   UNL     1       3.255  16.795   5.830  0.00  0.00    +0.000 F 
ATOM     30  C   UNL     1       1.533  15.299   5.288  0.00  0.00    +0.000 A 
ATOM     31  C   UNL     1       1.119  13.996   5.067  0.00  0.00    +0.000 A 
ATOM     32  F   UNL     1      -0.122  13.764   4.624  0.00  0.00    +0.000 F 
ATOM     33  C   UNL     1       1.984  12.928   5.278  0.00  0.00    +0.000 A 
ATOM     34  C   UNL     1       3.301  13.165   5.688  0.00  0.00    +0.000 A 
ENDBRANCH  26  27
ENDBRANCH  21  26
ENDBRANCH  20  22
ENDBRANCH   1  20
TORSDOF 8
ENDMDL
MODEL 3
REMARK VINA RESULT:    -5.457      1.627      2.232
REMARK INTER + INTRA:         -10.411
REMARK INTER:                  -7.375
REMARK INTRA:                  -3.036
REMARK UNBOUND:                -2.401
REMARK  Name = emap2_Bn-3,5diF_CH2CH2F
REMARK  9 active torsions:
REMARK  status: ('A' for Active; 'I' for Inactive)
REMARK    1  A    between atoms: C_1  and  C_2
REMARK    2  A    between atoms: C_2  and  N_3
REMARK    3  A    between atoms: N_3  and  C_4
REMARK    4  A    between atoms: C_4  and  C_5
REMARK    5  A    between atoms: C_13  and  C_15
REMARK    6  A    between atoms: C_15  and  N_16
REMARK    7  A    between atoms: C_21  and  C_23
REMARK    8  A    between atoms: N_29  and  C_32
REMARK    9  A    between atoms: C_32  and  C_33
REMARK                            x       y       z     vdW  Elec       q    Type
REMARK                         _______ _______ _______ _____ _____    ______ ____
ROOT
ATOM      1  N   UNL     1       6.848  13.683   8.790  0.00  0.00    +0.000 N 
ATOM      2  C   UNL     1       6.136  13.574   7.587  0.00  0.00    +0.000 A 
ATOM      3  C   UNL     1       6.988  13.012   6.659  0.00  0.00    +0.000 A 
ATOM      4  C   UNL     1       6.495  12.807   5.410  0.00  0.00    +0.000 A 
ATOM      5  N   UNL     1       5.231  13.164   5.106  0.00  0.00    +0.000 NA
ATOM      6  C   UNL     1       4.458  13.715   6.085  0.00  0.00    +0.000 A 
ATOM      7  N   UNL     1       4.873  13.936   7.356  0.00  0.00    +0.000 NA
ATOM      8  N   UNL     1       8.220  12.757   7.262  0.00  0.00    +0.000 N 
ATOM      9  C   UNL     1       8.120  13.103   8.625  0.00  0.00    +0.000 A 
ATOM     10  O   UNL     1       8.973  12.912   9.469  0.00  0.00    +0.000 OA
ENDROOT
BRANCH   6  11
ATOM     11  C   UNL     1       3.080  14.107   5.717  0.00  0.00    +0.000 A 
ATOM     12  C   UNL     1       2.134  13.152   5.293  0.00  0.00    +0.000 A 
ATOM     13  C   UNL     1       0.831  13.511   4.931  0.00  0.00    +0.000 A 
ATOM     14  C   UNL     1       0.439  14.844   4.983  0.00  0.00    +0.000 A 
ATOM     15  C   UNL     1       1.345  15.815   5.399  0.00  0.00    +0.000 A 
ATOM     16  C   UNL     1       2.647  15.447   5.763  0.00  0.00    +0.000 A 
ENDBRANCH   6  11
BRANCH   8  17
ATOM     17  C   UNL     1       9.387  12.191   6.632  0.00  0.00    +0.000 C 
BRANCH  17  18
ATOM     18  C   UNL     1       9.550  10.701   6.883  0.00  0.00    +0.000 C 
ATOM     19  F   UNL     1       8.503  10.038   6.317  0.00  0.00    +0.000 F 
ENDBRANCH  17  18
ENDBRANCH   8  17
BRANCH   1  20
ATOM     20  C   UNL     1       6.268  14.076  10.045  0.00  0.00    +0.000 C 
BRANCH  20  22
ATOM     21  N   UNL     1       4.859  16.074  10.744  0.00  0.00    +0.000 N 
ATOM     22  C   UNL     1       6.024  15.594  10.143  0.00  0.00    +0.000 C 
ATOM     23  O   UNL     1       6.875  16.370   9.699  0.00  0.00    +0.000 OA
BRANCH  21  25
ATOM     24  C   UNL     1       3.928  17.919  12.181  0.00  0.00    +0.000 C 
ATOM     25  C   UNL     1       4.722  17.524  10.939  0.00  0.00    +0.000 C 
ENDBRANCH  21  25
BRANCH  21  26
ATOM     26  C   UNL     1       3.728  15.235  11.145  0.00  0.00    +0.000 C 
BRANCH  26  27
ATOM     27  C   UNL     1       2.604  15.084  10.145  0.00  0.00    +0.000 A 
ATOM     28  C   UNL     1       2.386  13.811   9.594  0.00  0.00    +0.000 A 
ATOM     29  F   UNL     1       3.259  12.824   9.844  0.00  0.00    +0.000 F 
ATOM     30  C   UNL     1       1.265  13.519   8.827  0.00  0.00    +0.000 A 
ATOM     31  C   UNL     1       0.327  14.516   8.612  0.00  0.00    +0.000 A 
ATOM     32  F   UNL     1      -0.794  14.232   7.939  0.00  0.00    +0.000 F 
ATOM     33  C   UNL     1       0.527  15.801   9.105  0.00  0.00    +0.000 A 
ATOM     34  C   UNL     1       1.670  16.091   9.857  0.00  0.00    +0.000 A 
ENDBRANCH  26  27
ENDBRANCH  21  26
ENDBRANCH  20  22
ENDBRANCH   1  20
TORSDOF 8
ENDMDL
