MODEL 1
REMARK VINA RESULT:    -5.459      0.000      0.000
REMARK INTER + INTRA:          -9.850
REMARK INTER:                  -7.373
REMARK INTRA:                  -2.476
REMARK UNBOUND:                -2.476
REMARK  Name = emap2_Bn-3,4diF_Me
REMARK  8 active torsions:
REMARK  status: ('A' for Active; 'I' for Inactive)
REMARK    1  A    between atoms: C_1  and  C_2
REMARK    2  A    between atoms: C_2  and  N_3
REMARK    3  A    between atoms: N_3  and  C_4
REMARK    4  A    between atoms: C_4  and  C_5
REMARK    5  A    between atoms: C_13  and  C_15
REMARK    6  A    between atoms: C_15  and  N_16
REMARK    7  A    between atoms: C_21  and  C_23
REMARK    8  A    between atoms: N_29  and  C_32
REMARK                            x       y       z     vdW  Elec       q    Type
REMARK                         _______ _______ _______ _____ _____    ______ ____
ROOT
ATOM      1  N   UNL     1       6.666  14.133   8.874  0.00  0.00    +0.000 N 
ATOM      2  C   UNL     1       5.977  13.913   7.676  0.00  0.00    +0.000 A 
ATOM      3  C   UNL     1       6.841  13.252   6.827  0.00  0.00    +0.000 A 
ATOM      4  C   UNL     1       6.354  12.882   5.617  0.00  0.00    +0.000 A 
ATOM      5  N   UNL     1       5.085  13.173   5.268  0.00  0.00    +0.000 NA
ATOM      6  C   UNL     1       4.313  13.855   6.164  0.00  0.00    +0.000 A 
ATOM      7  N   UNL     1       4.711  14.238   7.400  0.00  0.00    +0.000 NA
ATOM      8  N   UNL     1       8.074  13.094   7.457  0.00  0.00    +0.000 N 
ATOM      9  C   UNL     1       7.984  13.661   8.747  0.00  0.00    +0.000 A 
ATOM     10  O   UNL     1       8.865  13.697   9.590  0.00  0.00    +0.000 OA
ATOM     11  C   UNL     1       9.239  12.460   6.912  0.00  0.00    +0.000 C 
ENDROOT
BRANCH   6  12
ATOM     12  C   UNL     1       2.948  14.212   5.721  0.00  0.00    +0.000 A 
ATOM     13  C   UNL     1       2.496  15.548   5.770  0.00  0.00    +0.000 A 
ATOM     14  C   UNL     1       1.199  15.901   5.391  0.00  0.00    +0.000 A 
ATOM     15  C   UNL     1       0.316  14.922   4.946  0.00  0.00    +0.000 A 
ATOM     16  C   UNL     1       0.734  13.597   4.877  0.00  0.00    +0.000 A 
ATOM     17  C   UNL     1       2.036  13.246   5.258  0.00  0.00    +0.000 A 
ENDBRANCH   6  12
BRANCH   1  18
ATOM     18  C   UNL     1       6.114  14.837  10.004  0.00  0.00    +0.000 C 
BRANCH  18  20
ATOM     19  N   UNL     1       3.871  14.190  10.971  0.00  0.00    +0.000 N 
ATOM     20  C   UNL     1       5.240  13.905  10.867  0.00  0.00    +0.000 C 
ATOM     21  O   UNL     1       5.748  12.902  11.376  0.00  0.00    +0.000 OA
BRANCH  19  23
ATOM     22  C   UNL     1       2.643  13.552  13.166  0.00  0.00    +0.000 C 
ATOM     23  C   UNL     1       2.931  13.316  11.691  0.00  0.00    +0.000 C 
ENDBRANCH  19  23
BRANCH  19  24
ATOM     24  C   UNL     1       3.281  15.451  10.494  0.00  0.00    +0.000 C 
BRANCH  24  25
ATOM     25  C   UNL     1       1.929  15.347   9.834  0.00  0.00    +0.000 A 
ATOM     26  C   UNL     1       1.042  16.426   9.973  0.00  0.00    +0.000 A 
ATOM     27  F   UNL     1       1.409  17.489  10.702  0.00  0.00    +0.000 F 
ATOM     28  C   UNL     1      -0.217  16.433   9.373  0.00  0.00    +0.000 A 
ATOM     29  C   UNL     1      -0.619  15.333   8.625  0.00  0.00    +0.000 A 
ATOM     30  C   UNL     1       0.231  14.239   8.512  0.00  0.00    +0.000 A 
ATOM     31  F   UNL     1      -0.168  13.172   7.807  0.00  0.00    +0.000 F 
ATOM     32  C   UNL     1       1.490  14.231   9.110  0.00  0.00    +0.000 A 
ENDBRANCH  24  25
ENDBRANCH  19  24
ENDBRANCH  18  20
ENDBRANCH   1  18
TORSDOF 6
ENDMDL
MODEL 2
REMARK VINA RESULT:    -5.333      1.926      4.681
REMARK INTER + INTRA:          -9.680
REMARK INTER:                  -7.254
REMARK INTRA:                  -2.427
REMARK UNBOUND:                -2.476
REMARK  Name = emap2_Bn-3,4diF_Me
REMARK  8 active torsions:
REMARK  status: ('A' for Active; 'I' for Inactive)
REMARK    1  A    between atoms: C_1  and  C_2
REMARK    2  A    between atoms: C_2  and  N_3
REMARK    3  A    between atoms: N_3  and  C_4
REMARK    4  A    between atoms: C_4  and  C_5
REMARK    5  A    between atoms: C_13  and  C_15
REMARK    6  A    between atoms: C_15  and  N_16
REMARK    7  A    between atoms: C_21  and  C_23
REMARK    8  A    between atoms: N_29  and  C_32
REMARK                            x       y       z     vdW  Elec       q    Type
REMARK                         _______ _______ _______ _____ _____    ______ ____
ROOT
ATOM      1  N   UNL     1       6.387  13.168   9.500  0.00  0.00    +0.000 N 
ATOM      2  C   UNL     1       5.028  13.280   9.817  0.00  0.00    +0.000 A 
ATOM      3  C   UNL     1       4.766  12.355  10.806  0.00  0.00    +0.000 A 
ATOM      4  C   UNL     1       3.507  12.331  11.311  0.00  0.00    +0.000 A 
ATOM      5  N   UNL     1       2.562  13.169  10.840  0.00  0.00    +0.000 NA
ATOM      6  C   UNL     1       2.908  14.031   9.840  0.00  0.00    +0.000 A 
ATOM      7  N   UNL     1       4.145  14.138   9.299  0.00  0.00    +0.000 NA
ATOM      8  N   UNL     1       5.927  11.636  11.084  0.00  0.00    +0.000 N 
ATOM      9  C   UNL     1       6.958  12.128  10.254  0.00  0.00    +0.000 A 
ATOM     10  O   UNL     1       8.117  11.748  10.228  0.00  0.00    +0.000 OA
ATOM     11  C   UNL     1       6.073  10.584  12.048  0.00  0.00    +0.000 C 
ENDROOT
BRANCH   6  12
ATOM     12  C   UNL     1       1.829  14.889   9.305  0.00  0.00    +0.000 A 
ATOM     13  C   UNL     1       1.995  16.287   9.210  0.00  0.00    +0.000 A 
ATOM     14  C   UNL     1       0.975  17.120   8.741  0.00  0.00    +0.000 A 
ATOM     15  C   UNL     1      -0.242  16.571   8.350  0.00  0.00    +0.000 A 
ATOM     16  C   UNL     1      -0.433  15.195   8.423  0.00  0.00    +0.000 A 
ATOM     17  C   UNL     1       0.591  14.363   8.893  0.00  0.00    +0.000 A 
ENDBRANCH   6  12
BRANCH   1  18
ATOM     18  C   UNL     1       7.043  13.942   8.476  0.00  0.00    +0.000 C 
BRANCH  18  20
ATOM     19  N   UNL     1       6.306  13.746   6.067  0.00  0.00    +0.000 N 
ATOM     20  C   UNL     1       7.041  13.197   7.128  0.00  0.00    +0.000 C 
ATOM     21  O   UNL     1       7.739  12.187   6.995  0.00  0.00    +0.000 OA
BRANCH  19  23
ATOM     22  C   UNL     1       7.264  13.703   3.657  0.00  0.00    +0.000 C 
ATOM     23  C   UNL     1       6.311  13.167   4.714  0.00  0.00    +0.000 C 
ENDBRANCH  19  23
BRANCH  19  24
ATOM     24  C   UNL     1       5.361  14.860   6.246  0.00  0.00    +0.000 C 
BRANCH  24  25
ATOM     25  C   UNL     1       3.920  14.574   5.902  0.00  0.00    +0.000 A 
ATOM     26  C   UNL     1       3.044  15.664   5.775  0.00  0.00    +0.000 A 
ATOM     27  F   UNL     1       3.503  16.905   5.988  0.00  0.00    +0.000 F 
ATOM     28  C   UNL     1       1.702  15.500   5.430  0.00  0.00    +0.000 A 
ATOM     29  C   UNL     1       1.207  14.219   5.219  0.00  0.00    +0.000 A 
ATOM     30  C   UNL     1       2.052  13.127   5.382  0.00  0.00    +0.000 A 
ATOM     31  F   UNL     1       1.566  11.892   5.198  0.00  0.00    +0.000 F 
ATOM     32  C   UNL     1       3.393  13.289   5.726  0.00  0.00    +0.000 A 
ENDBRANCH  24  25
ENDBRANCH  19  24
ENDBRANCH  18  20
ENDBRANCH   1  18
TORSDOF 6
ENDMDL
MODEL 3
REMARK VINA RESULT:    -5.261      3.334      6.132
REMARK INTER + INTRA:          -9.582
REMARK INTER:                  -8.273
REMARK INTRA:                  -1.308
REMARK UNBOUND:                -2.476
REMARK  Name = emap2_Bn-3,4diF_Me
REMARK  8 active torsions:
REMARK  status: ('A' for Active; 'I' for Inactive)
REMARK    1  A    between atoms: C_1  and  C_2
REMARK    2  A    between atoms: C_2  and  N_3
REMARK    3  A    between atoms: N_3  and  C_4
REMARK    4  A    between atoms: C_4  and  C_5
REMARK    5  A    between atoms: C_13  and  C_15
REMARK    6  A    between atoms: C_15  and  N_16
REMARK    7  A    between atoms: C_21  and  C_23
REMARK    8  A    between atoms: N_29  and  C_32
REMARK                            x       y       z     vdW  Elec       q    Type
REMARK                         _______ _______ _______ _____ _____    ______ ____
ROOT
ATOM      1  N   UNL     1       7.869  12.457   5.589  0.00  0.00    +0.000 N 
ATOM      2  C   UNL     1       8.575  11.412   6.195  0.00  0.00    +0.000 A 
ATOM      3  C   UNL     1       9.822  11.372   5.605  0.00  0.00    +0.000 A 
ATOM      4  C   UNL     1      10.704  10.461   6.087  0.00  0.00    +0.000 A 
ATOM      5  N   UNL     1      10.352   9.626   7.086  0.00  0.00    +0.000 NA
ATOM      6  C   UNL     1       9.087   9.722   7.588  0.00  0.00    +0.000 A 
ATOM      7  N   UNL     1       8.156  10.618   7.184  0.00  0.00    +0.000 NA
ATOM      8  N   UNL     1       9.893  12.345   4.610  0.00  0.00    +0.000 N 
ATOM      9  C   UNL     1       8.659  13.030   4.577  0.00  0.00    +0.000 A 
ATOM     10  O   UNL     1       8.358  13.955   3.841  0.00  0.00    +0.000 OA
ATOM     11  C   UNL     1      11.017  12.625   3.764  0.00  0.00    +0.000 C 
ENDROOT
BRANCH   6  12
ATOM     12  C   UNL     1       8.718   8.749   8.638  0.00  0.00    +0.000 A 
ATOM     13  C   UNL     1       7.409   8.711   9.164  0.00  0.00    +0.000 A 
ATOM     14  C   UNL     1       7.048   7.823  10.181  0.00  0.00    +0.000 A 
ATOM     15  C   UNL     1       7.993   6.942  10.698  0.00  0.00    +0.000 A 
ATOM     16  C   UNL     1       9.290   6.949  10.195  0.00  0.00    +0.000 A 
ATOM     17  C   UNL     1       9.648   7.839   9.175  0.00  0.00    +0.000 A 
ENDBRANCH   6  12
BRANCH   1  18
ATOM     18  C   UNL     1       6.504  12.797   5.904  0.00  0.00    +0.000 C 
BRANCH  18  20
ATOM     19  N   UNL     1       5.414  14.854   6.887  0.00  0.00    +0.000 N 
ATOM     20  C   UNL     1       6.439  13.900   6.979  0.00  0.00    +0.000 C 
ATOM     21  O   UNL     1       7.234  13.872   7.922  0.00  0.00    +0.000 OA
BRANCH  19  23
ATOM     22  C   UNL     1       4.354  15.599   9.135  0.00  0.00    +0.000 C 
ATOM     23  C   UNL     1       5.204  15.893   7.909  0.00  0.00    +0.000 C 
ENDBRANCH  19  23
BRANCH  19  24
ATOM     24  C   UNL     1       4.553  14.987   5.702  0.00  0.00    +0.000 C 
BRANCH  24  25
ATOM     25  C   UNL     1       3.125  14.528   5.860  0.00  0.00    +0.000 A 
ATOM     26  C   UNL     1       2.102  15.454   5.605  0.00  0.00    +0.000 A 
ATOM     27  F   UNL     1       2.422  16.710   5.261  0.00  0.00    +0.000 F 
ATOM     28  C   UNL     1       0.753  15.112   5.695  0.00  0.00    +0.000 A 
ATOM     29  C   UNL     1       0.403  13.819   6.064  0.00  0.00    +0.000 A 
ATOM     30  C   UNL     1       1.404  12.901   6.359  0.00  0.00    +0.000 A 
ATOM     31  F   UNL     1       1.064  11.661   6.734  0.00  0.00    +0.000 F 
ATOM     32  C   UNL     1       2.754  13.241   6.269  0.00  0.00    +0.000 A 
ENDBRANCH  24  25
ENDBRANCH  19  24
ENDBRANCH  18  20
ENDBRANCH   1  18
TORSDOF 6
ENDMDL
