MODEL 1
REMARK VINA RESULT:    -5.751      0.000      0.000
REMARK INTER + INTRA:         -11.579
REMARK INTER:                  -8.440
REMARK INTRA:                  -3.138
REMARK UNBOUND:                -3.138
REMARK SMILES CCN(Cc1cc(F)ccc1F)C(=O)Cn1c(=O)n(C(F)F)c2cnc(-c3ccccc3)nc21
REMARK SMILES IDX 13 1 14 2 3 3 2 4 1 5 4 6 5 7 6 8 11 9 7 10 10 11 9 12 12 13
REMARK SMILES IDX 8 14 15 15 16 16 17 17 34 18 18 19 19 20 23 21 33 22 24 23
REMARK SMILES IDX 26 24 25 25 20 26 21 27 22 28 27 29 28 30 32 31 29 32 31 33
REMARK SMILES IDX 30 34
REMARK H PARENT
ROOT
ATOM      1  C   UNL     1       0.393  17.957   7.069  1.00  0.00     0.243 C 
ATOM      2  O   UNL     1      -0.741  18.304   7.415  1.00  0.00    -0.273 OA
ENDROOT
BRANCH   1   3
ATOM      3  N   UNL     1       0.616  17.356   5.827  1.00  0.00    -0.337 N 
BRANCH   3   4
ATOM      4  C   UNL     1       1.513  18.030   4.888  1.00  0.00     0.116 C 
ATOM      5  C   UNL     1       0.747  18.791   3.818  1.00  0.00     0.027 C 
ENDBRANCH   3   4
BRANCH   3   6
ATOM      6  C   UNL     1      -0.166  16.229   5.313  1.00  0.00     0.158 C 
BRANCH   6   7
ATOM      7  C   UNL     1       0.313  14.891   5.810  1.00  0.00     0.010 A 
ATOM      8  C   UNL     1       1.241  14.117   5.095  1.00  0.00     0.047 A 
ATOM      9  C   UNL     1      -0.218  14.358   6.992  1.00  0.00     0.128 A 
ATOM     10  C   UNL     1       1.630  12.870   5.578  1.00  0.00     0.123 A 
ATOM     11  C   UNL     1       0.174  13.111   7.474  1.00  0.00     0.042 A 
ATOM     12  C   UNL     1       1.108  12.361   6.763  1.00  0.00     0.042 A 
ATOM     13  F   UNL     1      -1.121  15.062   7.688  1.00  0.00    -0.207 F 
ATOM     14  F   UNL     1       2.519  12.145   4.887  1.00  0.00    -0.207 F 
ENDBRANCH   6   7
ENDBRANCH   3   6
ENDBRANCH   1   3
BRANCH   1  15
ATOM     15  C   UNL     1       1.617  18.220   7.964  1.00  0.00     0.229 C 
BRANCH  15  16
ATOM     16  N   UNL     1       1.864  17.095   8.825  1.00  0.00    -0.267 N 
ATOM     17  C   UNL     1       1.143  16.760   9.982  1.00  0.00     0.335 A 
ATOM     18  C   UNL     1       2.703  16.028   8.486  1.00  0.00     0.165 A 
ATOM     19  O   UNL     1       0.305  17.441  10.549  1.00  0.00    -0.247 OA
ATOM     20  N   UNL     1       1.582  15.492  10.363  1.00  0.00    -0.230 N 
ATOM     21  C   UNL     1       2.539  15.058   9.450  1.00  0.00     0.113 A 
ATOM     22  N   UNL     1       3.524  15.955   7.440  1.00  0.00    -0.208 NA
ATOM     23  C   UNL     1       3.284  13.931   9.326  1.00  0.00     0.144 A 
ATOM     24  C   UNL     1       4.226  14.801   7.380  1.00  0.00     0.161 A 
ATOM     25  N   UNL     1       4.143  13.788   8.291  1.00  0.00    -0.234 NA
BRANCH  20  26
ATOM     26  C   UNL     1       1.153  14.810  11.526  1.00  0.00     0.453 C 
ATOM     27  F   UNL     1       1.454  15.540  12.631  1.00  0.00    -0.185 F 
ATOM     28  F   UNL     1      -0.199  14.693  11.505  1.00  0.00    -0.185 F 
ENDBRANCH  20  26
BRANCH  24  29
ATOM     29  C   UNL     1       5.160  14.626   6.247  1.00  0.00     0.019 A 
ATOM     30  C   UNL     1       5.796  15.727   5.639  1.00  0.00     0.012 A 
ATOM     31  C   UNL     1       5.452  13.351   5.723  1.00  0.00     0.012 A 
ATOM     32  C   UNL     1       6.679  15.563   4.567  1.00  0.00     0.001 A 
ATOM     33  C   UNL     1       6.335  13.183   4.651  1.00  0.00     0.001 A 
ATOM     34  C   UNL     1       6.949  14.290   4.074  1.00  0.00     0.000 A 
ENDBRANCH  24  29
ENDBRANCH  15  16
ENDBRANCH   1  15
TORSDOF 8
ENDMDL
MODEL 2
REMARK VINA RESULT:    -5.535      2.077      5.232
REMARK INTER + INTRA:         -11.262
REMARK INTER:                  -8.027
REMARK INTRA:                  -3.235
REMARK UNBOUND:                -3.138
REMARK SMILES CCN(Cc1cc(F)ccc1F)C(=O)Cn1c(=O)n(C(F)F)c2cnc(-c3ccccc3)nc21
REMARK SMILES IDX 13 1 14 2 3 3 2 4 1 5 4 6 5 7 6 8 11 9 7 10 10 11 9 12 12 13
REMARK SMILES IDX 8 14 15 15 16 16 17 17 34 18 18 19 19 20 23 21 33 22 24 23
REMARK SMILES IDX 26 24 25 25 20 26 21 27 22 28 27 29 28 30 32 31 29 32 31 33
REMARK SMILES IDX 30 34
REMARK H PARENT
ROOT
ATOM      1  C   UNL     1       1.738  17.745   5.795  1.00  0.00     0.243 C 
ATOM      2  O   UNL     1       1.978  18.037   4.619  1.00  0.00    -0.273 OA
ENDROOT
BRANCH   1   3
ATOM      3  N   UNL     1       0.451  17.377   6.198  1.00  0.00    -0.337 N 
BRANCH   3   4
ATOM      4  C   UNL     1      -0.075  17.958   7.433  1.00  0.00     0.116 C 
ATOM      5  C   UNL     1      -1.586  18.127   7.383  1.00  0.00     0.027 C 
ENDBRANCH   3   4
BRANCH   3   6
ATOM      6  C   UNL     1      -0.310  16.277   5.600  1.00  0.00     0.158 C 
BRANCH   6   7
ATOM      7  C   UNL     1       0.204  14.915   5.985  1.00  0.00     0.010 A 
ATOM      8  C   UNL     1       1.152  14.228   5.210  1.00  0.00     0.047 A 
ATOM      9  C   UNL     1      -0.313  14.272   7.117  1.00  0.00     0.128 A 
ATOM     10  C   UNL     1       1.574  12.956   5.588  1.00  0.00     0.123 A 
ATOM     11  C   UNL     1       0.112  12.999   7.494  1.00  0.00     0.042 A 
ATOM     12  C   UNL     1       1.065  12.336   6.725  1.00  0.00     0.042 A 
ATOM     13  F   UNL     1      -1.235  14.891   7.868  1.00  0.00    -0.207 F 
ATOM     14  F   UNL     1       2.482  12.315   4.840  1.00  0.00    -0.207 F 
ENDBRANCH   6   7
ENDBRANCH   3   6
ENDBRANCH   1   3
BRANCH   1  15
ATOM     15  C   UNL     1       2.851  17.718   6.856  1.00  0.00     0.229 C 
BRANCH  15  16
ATOM     16  N   UNL     1       3.340  16.378   7.043  1.00  0.00    -0.267 N 
ATOM     17  C   UNL     1       4.367  15.760   6.313  1.00  0.00     0.335 A 
ATOM     18  C   UNL     1       3.031  15.588   8.156  1.00  0.00     0.165 A 
ATOM     19  O   UNL     1       4.900  16.175   5.297  1.00  0.00    -0.247 OA
ATOM     20  N   UNL     1       4.651  14.565   6.974  1.00  0.00    -0.230 N 
ATOM     21  C   UNL     1       3.827  14.465   8.091  1.00  0.00     0.113 A 
ATOM     22  N   UNL     1       2.130  15.851   9.100  1.00  0.00    -0.208 NA
ATOM     23  C   UNL     1       3.673  13.542   9.073  1.00  0.00     0.144 A 
ATOM     24  C   UNL     1       2.040  14.889  10.046  1.00  0.00     0.161 A 
ATOM     25  N   UNL     1       2.773  13.738  10.063  1.00  0.00    -0.234 NA
BRANCH  20  26
ATOM     26  C   UNL     1       5.586  13.602   6.525  1.00  0.00     0.453 C 
ATOM     27  F   UNL     1       5.239  13.156   5.290  1.00  0.00    -0.185 F 
ATOM     28  F   UNL     1       6.803  14.188   6.389  1.00  0.00    -0.185 F 
ENDBRANCH  20  26
BRANCH  24  29
ATOM     29  C   UNL     1       1.068  15.097  11.142  1.00  0.00     0.019 A 
ATOM     30  C   UNL     1       1.168  14.392  12.359  1.00  0.00     0.012 A 
ATOM     31  C   UNL     1      -0.001  16.005  11.016  1.00  0.00     0.012 A 
ATOM     32  C   UNL     1       0.249  14.587  13.396  1.00  0.00     0.001 A 
ATOM     33  C   UNL     1      -0.922  16.203  12.051  1.00  0.00     0.001 A 
ATOM     34  C   UNL     1      -0.795  15.493  13.241  1.00  0.00     0.000 A 
ENDBRANCH  24  29
ENDBRANCH  15  16
ENDBRANCH   1  15
TORSDOF 8
ENDMDL
MODEL 3
REMARK VINA RESULT:    -5.432      4.843      7.397
REMARK INTER + INTRA:         -11.110
REMARK INTER:                  -9.466
REMARK INTRA:                  -1.644
REMARK UNBOUND:                -3.138
REMARK SMILES CCN(Cc1cc(F)ccc1F)C(=O)Cn1c(=O)n(C(F)F)c2cnc(-c3ccccc3)nc21
REMARK SMILES IDX 13 1 14 2 3 3 2 4 1 5 4 6 5 7 6 8 11 9 7 10 10 11 9 12 12 13
REMARK SMILES IDX 8 14 15 15 16 16 17 17 34 18 18 19 19 20 23 21 33 22 24 23
REMARK SMILES IDX 26 24 25 25 20 26 21 27 22 28 27 29 28 30 32 31 29 32 31 33
REMARK SMILES IDX 30 34
REMARK H PARENT
ROOT
ATOM      1  C   UNL     1       6.541  14.279   6.617  1.00  0.00     0.243 C 
ATOM      2  O   UNL     1       7.307  14.643   7.514  1.00  0.00    -0.273 OA
ENDROOT
BRANCH   1   3
ATOM      3  N   UNL     1       5.580  15.147   6.092  1.00  0.00    -0.337 N 
BRANCH   3   4
ATOM      4  C   UNL     1       5.929  15.923   4.902  1.00  0.00     0.116 C 
ATOM      5  C   UNL     1       5.567  17.392   5.055  1.00  0.00     0.027 C 
ENDBRANCH   3   4
BRANCH   3   6
ATOM      6  C   UNL     1       4.340  15.508   6.785  1.00  0.00     0.158 C 
BRANCH   6   7
ATOM      7  C   UNL     1       3.106  14.923   6.150  1.00  0.00     0.010 A 
ATOM      8  C   UNL     1       3.015  13.564   5.808  1.00  0.00     0.047 A 
ATOM      9  C   UNL     1       2.028  15.757   5.830  1.00  0.00     0.128 A 
ATOM     10  C   UNL     1       1.866  13.075   5.193  1.00  0.00     0.123 A 
ATOM     11  C   UNL     1       0.878  15.265   5.215  1.00  0.00     0.042 A 
ATOM     12  C   UNL     1       0.795  13.912   4.896  1.00  0.00     0.042 A 
ATOM     13  F   UNL     1       2.090  17.064   6.124  1.00  0.00    -0.207 F 
ATOM     14  F   UNL     1       1.792  11.775   4.876  1.00  0.00    -0.207 F 
ENDBRANCH   6   7
ENDBRANCH   3   6
ENDBRANCH   1   3
BRANCH   1  15
ATOM     15  C   UNL     1       6.646  12.874   5.998  1.00  0.00     0.229 C 
BRANCH  15  16
ATOM     16  N   UNL     1       8.015  12.556   5.693  1.00  0.00    -0.267 N 
ATOM     17  C   UNL     1       8.895  11.819   6.500  1.00  0.00     0.335 A 
ATOM     18  C   UNL     1       8.587  12.722   4.427  1.00  0.00     0.165 A 
ATOM     19  O   UNL     1       8.717  11.469   7.655  1.00  0.00    -0.247 OA
ATOM     20  N   UNL     1      10.026  11.571   5.720  1.00  0.00    -0.230 N 
ATOM     21  C   UNL     1       9.831  12.133   4.462  1.00  0.00     0.113 A 
ATOM     22  N   UNL     1       8.048  13.344   3.380  1.00  0.00    -0.208 NA
ATOM     23  C   UNL     1      10.577  12.198   3.330  1.00  0.00     0.144 A 
ATOM     24  C   UNL     1       8.847  13.360   2.289  1.00  0.00     0.161 A 
ATOM     25  N   UNL     1      10.098  12.817   2.228  1.00  0.00    -0.234 NA
BRANCH  20  26
ATOM     26  C   UNL     1      11.189  10.910   6.180  1.00  0.00     0.453 C 
ATOM     27  F   UNL     1      11.536   9.921   5.315  1.00  0.00    -0.185 F 
ATOM     28  F   UNL     1      12.227  11.784   6.194  1.00  0.00    -0.185 F 
ENDBRANCH  20  26
BRANCH  24  29
ATOM     29  C   UNL     1       8.330  14.024   1.072  1.00  0.00     0.019 A 
ATOM     30  C   UNL     1       9.173  14.769   0.224  1.00  0.00     0.012 A 
ATOM     31  C   UNL     1       6.971  13.943   0.710  1.00  0.00     0.012 A 
ATOM     32  C   UNL     1       8.686  15.398  -0.926  1.00  0.00     0.001 A 
ATOM     33  C   UNL     1       6.479  14.570  -0.440  1.00  0.00     0.001 A 
ATOM     34  C   UNL     1       7.339  15.297  -1.258  1.00  0.00     0.000 A 
ENDBRANCH  24  29
ENDBRANCH  15  16
ENDBRANCH   1  15
TORSDOF 8
ENDMDL
MODEL 4
REMARK VINA RESULT:    -5.347      5.008      8.177
REMARK INTER + INTRA:         -10.986
REMARK INTER:                  -9.509
REMARK INTRA:                  -1.477
REMARK UNBOUND:                -3.138
REMARK SMILES CCN(Cc1cc(F)ccc1F)C(=O)Cn1c(=O)n(C(F)F)c2cnc(-c3ccccc3)nc21
REMARK SMILES IDX 13 1 14 2 3 3 2 4 1 5 4 6 5 7 6 8 11 9 7 10 10 11 9 12 12 13
REMARK SMILES IDX 8 14 15 15 16 16 17 17 34 18 18 19 19 20 23 21 33 22 24 23
REMARK SMILES IDX 26 24 25 25 20 26 21 27 22 28 27 29 28 30 32 31 29 32 31 33
REMARK SMILES IDX 30 34
REMARK H PARENT
ROOT
ATOM      1  C   UNL     1       8.389  14.189   3.017  1.00  0.00     0.243 C 
ATOM      2  O   UNL     1       8.021  15.262   3.505  1.00  0.00    -0.273 OA
ENDROOT
BRANCH   1   3
ATOM      3  N   UNL     1       9.389  14.145   2.042  1.00  0.00    -0.337 N 
BRANCH   3   4
ATOM      4  C   UNL     1      10.705  13.636   2.428  1.00  0.00     0.116 C 
ATOM      5  C   UNL     1      10.925  12.210   1.949  1.00  0.00     0.027 C 
ENDBRANCH   3   4
BRANCH   3   6
ATOM      6  C   UNL     1       9.280  14.790   0.731  1.00  0.00     0.158 C 
BRANCH   6   7
ATOM      7  C   UNL     1       7.861  14.923   0.244  1.00  0.00     0.010 A 
ATOM      8  C   UNL     1       7.118  13.819  -0.203  1.00  0.00     0.047 A 
ATOM      9  C   UNL     1       7.267  16.190   0.172  1.00  0.00     0.128 A 
ATOM     10  C   UNL     1       5.821  13.995  -0.675  1.00  0.00     0.123 A 
ATOM     11  C   UNL     1       5.967  16.363  -0.300  1.00  0.00     0.042 A 
ATOM     12  C   UNL     1       5.237  15.256  -0.726  1.00  0.00     0.042 A 
ATOM     13  F   UNL     1       7.956  17.268   0.571  1.00  0.00    -0.207 F 
ATOM     14  F   UNL     1       5.124  12.931  -1.095  1.00  0.00    -0.207 F 
ENDBRANCH   6   7
ENDBRANCH   3   6
ENDBRANCH   1   3
BRANCH   1  15
ATOM     15  C   UNL     1       7.804  12.849   3.498  1.00  0.00     0.229 C 
BRANCH  15  16
ATOM     16  N   UNL     1       7.765  12.801   4.935  1.00  0.00    -0.267 N 
ATOM     17  C   UNL     1       8.866  12.647   5.791  1.00  0.00     0.335 A 
ATOM     18  C   UNL     1       6.644  13.160   5.693  1.00  0.00     0.165 A 
ATOM     19  O   UNL     1      10.009  12.359   5.475  1.00  0.00    -0.247 OA
ATOM     20  N   UNL     1       8.392  12.878   7.083  1.00  0.00    -0.230 N 
ATOM     21  C   UNL     1       7.036  13.182   7.013  1.00  0.00     0.113 A 
ATOM     22  N   UNL     1       5.420  13.419   5.239  1.00  0.00    -0.208 NA
ATOM     23  C   UNL     1       6.088  13.488   7.934  1.00  0.00     0.144 A 
ATOM     24  C   UNL     1       4.533  13.724   6.214  1.00  0.00     0.161 A 
ATOM     25  N   UNL     1       4.820  13.759   7.548  1.00  0.00    -0.234 NA
BRANCH  20  26
ATOM     26  C   UNL     1       9.172  12.756   8.257  1.00  0.00     0.453 C 
ATOM     27  F   UNL     1       9.134  13.915   8.965  1.00  0.00    -0.185 F 
ATOM     28  F   UNL     1       8.630  11.803   9.058  1.00  0.00    -0.185 F 
ENDBRANCH  20  26
BRANCH  24  29
ATOM     29  C   UNL     1       3.146  14.034   5.805  1.00  0.00     0.019 A 
ATOM     30  C   UNL     1       2.651  15.353   5.816  1.00  0.00     0.012 A 
ATOM     31  C   UNL     1       2.258  13.023   5.388  1.00  0.00     0.012 A 
ATOM     32  C   UNL     1       1.340  15.648   5.431  1.00  0.00     0.001 A 
ATOM     33  C   UNL     1       0.945  13.313   5.001  1.00  0.00     0.001 A 
ATOM     34  C   UNL     1       0.487  14.627   5.022  1.00  0.00     0.000 A 
ENDBRANCH  24  29
ENDBRANCH  15  16
ENDBRANCH   1  15
TORSDOF 8
ENDMDL
MODEL 5
REMARK VINA RESULT:    -5.297      4.547      7.287
REMARK INTER + INTRA:         -10.912
REMARK INTER:                  -9.347
REMARK INTRA:                  -1.565
REMARK UNBOUND:                -3.138
REMARK SMILES CCN(Cc1cc(F)ccc1F)C(=O)Cn1c(=O)n(C(F)F)c2cnc(-c3ccccc3)nc21
REMARK SMILES IDX 13 1 14 2 3 3 2 4 1 5 4 6 5 7 6 8 11 9 7 10 10 11 9 12 12 13
REMARK SMILES IDX 8 14 15 15 16 16 17 17 34 18 18 19 19 20 23 21 33 22 24 23
REMARK SMILES IDX 26 24 25 25 20 26 21 27 22 28 27 29 28 30 32 31 29 32 31 33
REMARK SMILES IDX 30 34
REMARK H PARENT
ROOT
ATOM      1  C   UNL     1       5.394  14.328   5.959  1.00  0.00     0.243 C 
ATOM      2  O   UNL     1       5.736  15.403   5.456  1.00  0.00    -0.273 OA
ENDROOT
BRANCH   1   3
ATOM      3  N   UNL     1       4.675  14.289   7.157  1.00  0.00    -0.337 N 
BRANCH   3   4
ATOM      4  C   UNL     1       5.356  14.709   8.382  1.00  0.00     0.116 C 
ATOM      5  C   UNL     1       5.247  13.661   9.479  1.00  0.00     0.027 C 
ENDBRANCH   3   4
BRANCH   3   6
ATOM      6  C   UNL     1       3.371  13.637   7.307  1.00  0.00     0.158 C 
BRANCH   6   7
ATOM      7  C   UNL     1       2.288  14.263   6.470  1.00  0.00     0.010 A 
ATOM      8  C   UNL     1       1.921  15.611   6.609  1.00  0.00     0.047 A 
ATOM      9  C   UNL     1       1.572  13.476   5.558  1.00  0.00     0.128 A 
ATOM     10  C   UNL     1       0.890  16.138   5.835  1.00  0.00     0.123 A 
ATOM     11  C   UNL     1       0.542  14.006   4.784  1.00  0.00     0.042 A 
ATOM     12  C   UNL     1       0.199  15.348   4.921  1.00  0.00     0.042 A 
ATOM     13  F   UNL     1       1.884  12.180   5.414  1.00  0.00    -0.207 F 
ATOM     14  F   UNL     1       0.553  17.426   5.978  1.00  0.00    -0.207 F 
ENDBRANCH   6   7
ENDBRANCH   3   6
ENDBRANCH   1   3
BRANCH   1  15
ATOM     15  C   UNL     1       5.695  12.988   5.266  1.00  0.00     0.229 C 
BRANCH  15  16
ATOM     16  N   UNL     1       7.111  12.741   5.237  1.00  0.00    -0.267 N 
ATOM     17  C   UNL     1       7.858  12.078   6.222  1.00  0.00     0.335 A 
ATOM     18  C   UNL     1       7.903  12.902   4.095  1.00  0.00     0.165 A 
ATOM     19  O   UNL     1       7.482  11.752   7.336  1.00  0.00    -0.247 OA
ATOM     20  N   UNL     1       9.127  11.873   5.679  1.00  0.00    -0.230 N 
ATOM     21  C   UNL     1       9.147  12.387   4.386  1.00  0.00     0.113 A 
ATOM     22  N   UNL     1       7.543  13.462   2.942  1.00  0.00    -0.208 NA
ATOM     23  C   UNL     1      10.090  12.462   3.413  1.00  0.00     0.144 A 
ATOM     24  C   UNL     1       8.532  13.493   2.020  1.00  0.00     0.161 A 
ATOM     25  N   UNL     1       9.798  13.021   2.217  1.00  0.00    -0.234 NA
BRANCH  20  26
ATOM     26  C   UNL     1      10.214  11.293   6.375  1.00  0.00     0.453 C 
ATOM     27  F   UNL     1      10.711  10.243   5.671  1.00  0.00    -0.185 F 
ATOM     28  F   UNL     1      11.221  12.198   6.471  1.00  0.00    -0.185 F 
ENDBRANCH  20  26
BRANCH  24  29
ATOM     29  C   UNL     1       8.223  14.091   0.703  1.00  0.00     0.019 A 
ATOM     30  C   UNL     1       6.942  13.980   0.126  1.00  0.00     0.012 A 
ATOM     31  C   UNL     1       9.196  14.795  -0.032  1.00  0.00     0.012 A 
ATOM     32  C   UNL     1       6.648  14.544  -1.120  1.00  0.00     0.001 A 
ATOM     33  C   UNL     1       8.906  15.361  -1.279  1.00  0.00     0.001 A 
ATOM     34  C   UNL     1       7.631  15.235  -1.821  1.00  0.00     0.000 A 
ENDBRANCH  24  29
ENDBRANCH  15  16
ENDBRANCH   1  15
TORSDOF 8
ENDMDL
MODEL 6
REMARK VINA RESULT:    -5.138      5.086      8.186
REMARK INTER + INTRA:         -10.680
REMARK INTER:                  -8.803
REMARK INTRA:                  -1.876
REMARK UNBOUND:                -3.138
REMARK SMILES CCN(Cc1cc(F)ccc1F)C(=O)Cn1c(=O)n(C(F)F)c2cnc(-c3ccccc3)nc21
REMARK SMILES IDX 13 1 14 2 3 3 2 4 1 5 4 6 5 7 6 8 11 9 7 10 10 11 9 12 12 13
REMARK SMILES IDX 8 14 15 15 16 16 17 17 34 18 18 19 19 20 23 21 33 22 24 23
REMARK SMILES IDX 26 24 25 25 20 26 21 27 22 28 27 29 28 30 32 31 29 32 31 33
REMARK SMILES IDX 30 34
REMARK H PARENT
ROOT
ATOM      1  C   UNL     1       8.906  13.145   3.202  1.00  0.00     0.243 C 
ATOM      2  O   UNL     1       9.872  12.680   2.589  1.00  0.00    -0.273 OA
ENDROOT
BRANCH   1   3
ATOM      3  N   UNL     1       8.708  14.525   3.296  1.00  0.00    -0.337 N 
BRANCH   3   4
ATOM      4  C   UNL     1       9.722  15.321   3.987  1.00  0.00     0.116 C 
ATOM      5  C   UNL     1       9.187  15.927   5.275  1.00  0.00     0.027 C 
ENDBRANCH   3   4
BRANCH   3   6
ATOM      6  C   UNL     1       7.448  15.194   2.962  1.00  0.00     0.158 C 
BRANCH   6   7
ATOM      7  C   UNL     1       7.388  15.682   1.538  1.00  0.00     0.010 A 
ATOM      8  C   UNL     1       7.686  17.009   1.191  1.00  0.00     0.047 A 
ATOM      9  C   UNL     1       6.966  14.814   0.523  1.00  0.00     0.128 A 
ATOM     10  C   UNL     1       7.585  17.424  -0.134  1.00  0.00     0.123 A 
ATOM     11  C   UNL     1       6.867  15.231  -0.803  1.00  0.00     0.042 A 
ATOM     12  C   UNL     1       7.181  16.546  -1.135  1.00  0.00     0.042 A 
ATOM     13  F   UNL     1       6.653  13.546   0.824  1.00  0.00    -0.207 F 
ATOM     14  F   UNL     1       7.877  18.692  -0.451  1.00  0.00    -0.207 F 
ENDBRANCH   6   7
ENDBRANCH   3   6
ENDBRANCH   1   3
BRANCH   1  15
ATOM     15  C   UNL     1       7.850  12.228   3.844  1.00  0.00     0.229 C 
BRANCH  15  16
ATOM     16  N   UNL     1       7.805  12.428   5.268  1.00  0.00    -0.267 N 
ATOM     17  C   UNL     1       8.897  12.381   6.148  1.00  0.00     0.335 A 
ATOM     18  C   UNL     1       6.697  12.954   5.942  1.00  0.00     0.165 A 
ATOM     19  O   UNL     1      10.028  11.999   5.897  1.00  0.00    -0.247 OA
ATOM     20  N   UNL     1       8.429  12.848   7.377  1.00  0.00    -0.230 N 
ATOM     21  C   UNL     1       7.086  13.186   7.243  1.00  0.00     0.113 A 
ATOM     22  N   UNL     1       5.485  13.178   5.439  1.00  0.00    -0.208 NA
ATOM     23  C   UNL     1       6.147  13.681   8.089  1.00  0.00     0.144 A 
ATOM     24  C   UNL     1       4.608  13.678   6.339  1.00  0.00     0.161 A 
ATOM     25  N   UNL     1       4.893  13.931   7.650  1.00  0.00    -0.234 NA
BRANCH  20  26
ATOM     26  C   UNL     1       9.200  12.898   8.562  1.00  0.00     0.453 C 
ATOM     27  F   UNL     1       9.210  14.163   9.058  1.00  0.00    -0.185 F 
ATOM     28  F   UNL     1       8.616  12.123   9.511  1.00  0.00    -0.185 F 
ENDBRANCH  20  26
BRANCH  24  29
ATOM     29  C   UNL     1       3.236  13.966   5.870  1.00  0.00     0.019 A 
ATOM     30  C   UNL     1       2.373  12.939   5.439  1.00  0.00     0.012 A 
ATOM     31  C   UNL     1       2.731  15.281   5.831  1.00  0.00     0.012 A 
ATOM     32  C   UNL     1       1.075  13.209   4.994  1.00  0.00     0.001 A 
ATOM     33  C   UNL     1       1.433  15.556   5.387  1.00  0.00     0.001 A 
ATOM     34  C   UNL     1       0.606  14.519   4.969  1.00  0.00     0.000 A 
ENDBRANCH  24  29
ENDBRANCH  15  16
ENDBRANCH   1  15
TORSDOF 8
ENDMDL
MODEL 7
REMARK VINA RESULT:    -5.013      2.399      4.922
REMARK INTER + INTRA:         -10.496
REMARK INTER:                  -7.480
REMARK INTRA:                  -3.016
REMARK UNBOUND:                -3.138
REMARK SMILES CCN(Cc1cc(F)ccc1F)C(=O)Cn1c(=O)n(C(F)F)c2cnc(-c3ccccc3)nc21
REMARK SMILES IDX 13 1 14 2 3 3 2 4 1 5 4 6 5 7 6 8 11 9 7 10 10 11 9 12 12 13
REMARK SMILES IDX 8 14 15 15 16 16 17 17 34 18 18 19 19 20 23 21 33 22 24 23
REMARK SMILES IDX 26 24 25 25 20 26 21 27 22 28 27 29 28 30 32 31 29 32 31 33
REMARK SMILES IDX 30 34
REMARK H PARENT
ROOT
ATOM      1  C   UNL     1      -0.281  16.720   9.198  1.00  0.00     0.243 C 
ATOM      2  O   UNL     1      -0.929  16.273  10.150  1.00  0.00    -0.273 OA
ENDROOT
BRANCH   1   3
ATOM      3  N   UNL     1      -0.824  16.760   7.911  1.00  0.00    -0.337 N 
BRANCH   3   4
ATOM      4  C   UNL     1      -1.091  18.071   7.318  1.00  0.00     0.116 C 
ATOM      5  C   UNL     1      -2.162  17.998   6.240  1.00  0.00     0.027 C 
ENDBRANCH   3   4
BRANCH   3   6
ATOM      6  C   UNL     1      -1.362  15.589   7.214  1.00  0.00     0.158 C 
BRANCH   6   7
ATOM      7  C   UNL     1      -0.300  14.625   6.754  1.00  0.00     0.010 A 
ATOM      8  C   UNL     1       0.104  13.532   7.535  1.00  0.00     0.047 A 
ATOM      9  C   UNL     1       0.357  14.846   5.536  1.00  0.00     0.128 A 
ATOM     10  C   UNL     1       1.114  12.686   7.083  1.00  0.00     0.123 A 
ATOM     11  C   UNL     1       1.366  13.997   5.086  1.00  0.00     0.042 A 
ATOM     12  C   UNL     1       1.747  12.906   5.864  1.00  0.00     0.042 A 
ATOM     13  F   UNL     1       0.010  15.893   4.775  1.00  0.00    -0.207 F 
ATOM     14  F   UNL     1       1.486  11.644   7.838  1.00  0.00    -0.207 F 
ENDBRANCH   6   7
ENDBRANCH   3   6
ENDBRANCH   1   3
BRANCH   1  15
ATOM     15  C   UNL     1       1.130  17.301   9.394  1.00  0.00     0.229 C 
BRANCH  15  16
ATOM     16  N   UNL     1       2.092  16.565   8.619  1.00  0.00    -0.267 N 
ATOM     17  C   UNL     1       2.723  17.005   7.445  1.00  0.00     0.335 A 
ATOM     18  C   UNL     1       2.727  15.403   9.071  1.00  0.00     0.165 A 
ATOM     19  O   UNL     1       2.449  17.996   6.790  1.00  0.00    -0.247 OA
ATOM     20  N   UNL     1       3.725  16.074   7.168  1.00  0.00    -0.230 N 
ATOM     21  C   UNL     1       3.714  15.098   8.159  1.00  0.00     0.113 A 
ATOM     22  N   UNL     1       2.433  14.703  10.165  1.00  0.00    -0.208 NA
ATOM     23  C   UNL     1       4.447  13.981   8.394  1.00  0.00     0.144 A 
ATOM     24  C   UNL     1       3.212  13.611  10.335  1.00  0.00     0.161 A 
ATOM     25  N   UNL     1       4.204  13.217   9.484  1.00  0.00    -0.234 NA
BRANCH  20  26
ATOM     26  C   UNL     1       4.559  16.109   6.025  1.00  0.00     0.453 C 
ATOM     27  F   UNL     1       5.856  16.261   6.399  1.00  0.00    -0.185 F 
ATOM     28  F   UNL     1       4.486  14.917   5.380  1.00  0.00    -0.185 F 
ENDBRANCH  20  26
BRANCH  24  29
ATOM     29  C   UNL     1       2.964  12.773  11.529  1.00  0.00     0.019 A 
ATOM     30  C   UNL     1       3.341  11.416  11.568  1.00  0.00     0.012 A 
ATOM     31  C   UNL     1       2.338  13.295  12.677  1.00  0.00     0.012 A 
ATOM     32  C   UNL     1       3.107  10.622  12.696  1.00  0.00     0.001 A 
ATOM     33  C   UNL     1       2.103  12.505  13.808  1.00  0.00     0.001 A 
ATOM     34  C   UNL     1       2.488  11.169  13.816  1.00  0.00     0.000 A 
ENDBRANCH  24  29
ENDBRANCH  15  16
ENDBRANCH   1  15
TORSDOF 8
ENDMDL
MODEL 8
REMARK VINA RESULT:    -4.943      3.486      7.062
REMARK INTER + INTRA:         -10.393
REMARK INTER:                  -8.487
REMARK INTRA:                  -1.905
REMARK UNBOUND:                -3.138
REMARK SMILES CCN(Cc1cc(F)ccc1F)C(=O)Cn1c(=O)n(C(F)F)c2cnc(-c3ccccc3)nc21
REMARK SMILES IDX 13 1 14 2 3 3 2 4 1 5 4 6 5 7 6 8 11 9 7 10 10 11 9 12 12 13
REMARK SMILES IDX 8 14 15 15 16 16 17 17 34 18 18 19 19 20 23 21 33 22 24 23
REMARK SMILES IDX 26 24 25 25 20 26 21 27 22 28 27 29 28 30 32 31 29 32 31 33
REMARK SMILES IDX 30 34
REMARK H PARENT
ROOT
ATOM      1  C   UNL     1       0.564  18.066   7.051  1.00  0.00     0.243 C 
ATOM      2  O   UNL     1       1.018  17.629   8.114  1.00  0.00    -0.273 OA
ENDROOT
BRANCH   1   3
ATOM      3  N   UNL     1       0.814  17.416   5.839  1.00  0.00    -0.337 N 
BRANCH   3   4
ATOM      4  C   UNL     1       1.805  18.001   4.936  1.00  0.00     0.116 C 
ATOM      5  C   UNL     1       3.227  17.701   5.383  1.00  0.00     0.027 C 
ENDBRANCH   3   4
BRANCH   3   6
ATOM      6  C   UNL     1      -0.014  16.329   5.309  1.00  0.00     0.158 C 
BRANCH   6   7
ATOM      7  C   UNL     1       0.389  14.968   5.814  1.00  0.00     0.010 A 
ATOM      8  C   UNL     1       1.287  14.148   5.114  1.00  0.00     0.047 A 
ATOM      9  C   UNL     1      -0.186  14.465   6.988  1.00  0.00     0.128 A 
ATOM     10  C   UNL     1       1.605  12.883   5.603  1.00  0.00     0.123 A 
ATOM     11  C   UNL     1       0.135  13.200   7.476  1.00  0.00     0.042 A 
ATOM     12  C   UNL     1       1.039  12.402   6.779  1.00  0.00     0.042 A 
ATOM     13  F   UNL     1      -1.063  15.214   7.671  1.00  0.00    -0.207 F 
ATOM     14  F   UNL     1       2.466  12.113   4.925  1.00  0.00    -0.207 F 
ENDBRANCH   6   7
ENDBRANCH   3   6
ENDBRANCH   1   3
BRANCH   1  15
ATOM     15  C   UNL     1      -0.338  19.311   7.019  1.00  0.00     0.229 C 
BRANCH  15  16
ATOM     16  N   UNL     1      -1.709  18.937   6.793  1.00  0.00    -0.267 N 
ATOM     17  C   UNL     1      -2.363  18.889   5.553  1.00  0.00     0.335 A 
ATOM     18  C   UNL     1      -2.512  18.319   7.758  1.00  0.00     0.165 A 
ATOM     19  O   UNL     1      -1.950  19.312   4.486  1.00  0.00    -0.247 OA
ATOM     20  N   UNL     1      -3.591  18.269   5.783  1.00  0.00    -0.230 N 
ATOM     21  C   UNL     1      -3.676  17.933   7.130  1.00  0.00     0.113 A 
ATOM     22  N   UNL     1      -2.227  18.143   9.046  1.00  0.00    -0.208 NA
ATOM     23  C   UNL     1      -4.618  17.326   7.895  1.00  0.00     0.144 A 
ATOM     24  C   UNL     1      -3.209  17.525   9.740  1.00  0.00     0.161 A 
ATOM     25  N   UNL     1      -4.400  17.117   9.214  1.00  0.00    -0.234 NA
BRANCH  20  26
ATOM     26  C   UNL     1      -4.592  18.082   4.800  1.00  0.00     0.453 C 
ATOM     27  F   UNL     1      -4.925  19.275   4.241  1.00  0.00    -0.185 F 
ATOM     28  F   UNL     1      -4.097  17.316   3.795  1.00  0.00    -0.185 F 
ENDBRANCH  20  26
BRANCH  24  29
ATOM     29  C   UNL     1      -2.979  17.280  11.181  1.00  0.00     0.019 A 
ATOM     30  C   UNL     1      -4.014  17.418  12.126  1.00  0.00     0.012 A 
ATOM     31  C   UNL     1      -1.714  16.901  11.670  1.00  0.00     0.012 A 
ATOM     32  C   UNL     1      -3.799  17.187  13.489  1.00  0.00     0.001 A 
ATOM     33  C   UNL     1      -1.493  16.669  13.033  1.00  0.00     0.001 A 
ATOM     34  C   UNL     1      -2.537  16.812  13.941  1.00  0.00     0.000 A 
ENDBRANCH  24  29
ENDBRANCH  15  16
ENDBRANCH   1  15
TORSDOF 8
ENDMDL
MODEL 9
REMARK VINA RESULT:    -4.932      3.729      5.905
REMARK INTER + INTRA:         -10.377
REMARK INTER:                  -8.614
REMARK INTRA:                  -1.763
REMARK UNBOUND:                -3.138
REMARK SMILES CCN(Cc1cc(F)ccc1F)C(=O)Cn1c(=O)n(C(F)F)c2cnc(-c3ccccc3)nc21
REMARK SMILES IDX 13 1 14 2 3 3 2 4 1 5 4 6 5 7 6 8 11 9 7 10 10 11 9 12 12 13
REMARK SMILES IDX 8 14 15 15 16 16 17 17 34 18 18 19 19 20 23 21 33 22 24 23
REMARK SMILES IDX 26 24 25 25 20 26 21 27 22 28 27 29 28 30 32 31 29 32 31 33
REMARK SMILES IDX 30 34
REMARK H PARENT
ROOT
ATOM      1  C   UNL     1       5.170  14.212   8.825  1.00  0.00     0.243 C 
ATOM      2  O   UNL     1       4.688  13.211   9.364  1.00  0.00    -0.273 OA
ENDROOT
BRANCH   1   3
ATOM      3  N   UNL     1       4.350  15.197   8.267  1.00  0.00    -0.337 N 
BRANCH   3   4
ATOM      4  C   UNL     1       3.361  15.839   9.132  1.00  0.00     0.116 C 
ATOM      5  C   UNL     1       4.003  16.831  10.090  1.00  0.00     0.027 C 
ENDBRANCH   3   4
BRANCH   3   6
ATOM      6  C   UNL     1       4.251  15.459   6.829  1.00  0.00     0.158 C 
BRANCH   6   7
ATOM      7  C   UNL     1       3.031  14.850   6.191  1.00  0.00     0.010 A 
ATOM      8  C   UNL     1       2.967  13.489   5.851  1.00  0.00     0.047 A 
ATOM      9  C   UNL     1       1.938  15.663   5.865  1.00  0.00     0.128 A 
ATOM     10  C   UNL     1       1.829  12.977   5.232  1.00  0.00     0.123 A 
ATOM     11  C   UNL     1       0.800  15.148   5.247  1.00  0.00     0.042 A 
ATOM     12  C   UNL     1       0.744  13.793   4.930  1.00  0.00     0.042 A 
ATOM     13  F   UNL     1       1.975  16.971   6.158  1.00  0.00    -0.207 F 
ATOM     14  F   UNL     1       1.782  11.676   4.917  1.00  0.00    -0.207 F 
ENDBRANCH   6   7
ENDBRANCH   3   6
ENDBRANCH   1   3
BRANCH   1  15
ATOM     15  C   UNL     1       6.690  14.448   8.790  1.00  0.00     0.229 C 
BRANCH  15  16
ATOM     16  N   UNL     1       7.373  13.278   8.307  1.00  0.00    -0.267 N 
ATOM     17  C   UNL     1       7.693  12.135   9.055  1.00  0.00     0.335 A 
ATOM     18  C   UNL     1       7.587  13.011   6.950  1.00  0.00     0.165 A 
ATOM     19  O   UNL     1       7.607  11.999  10.264  1.00  0.00    -0.247 OA
ATOM     20  N   UNL     1       8.141  11.182   8.139  1.00  0.00    -0.230 N 
ATOM     21  C   UNL     1       8.081  11.728   6.861  1.00  0.00     0.113 A 
ATOM     22  N   UNL     1       7.373  13.836   5.927  1.00  0.00    -0.208 NA
ATOM     23  C   UNL     1       8.383  11.267   5.621  1.00  0.00     0.144 A 
ATOM     24  C   UNL     1       7.690  13.303   4.725  1.00  0.00     0.161 A 
ATOM     25  N   UNL     1       8.197  12.050   4.534  1.00  0.00    -0.234 NA
BRANCH  20  26
ATOM     26  C   UNL     1       8.630   9.901   8.489  1.00  0.00     0.453 C 
ATOM     27  F   UNL     1       7.892   8.938   7.879  1.00  0.00    -0.185 F 
ATOM     28  F   UNL     1       9.897   9.761   8.023  1.00  0.00    -0.185 F 
ENDBRANCH  20  26
BRANCH  24  29
ATOM     29  C   UNL     1       7.480  14.145   3.527  1.00  0.00     0.019 A 
ATOM     30  C   UNL     1       7.277  15.536   3.629  1.00  0.00     0.012 A 
ATOM     31  C   UNL     1       7.470  13.592   2.231  1.00  0.00     0.012 A 
ATOM     32  C   UNL     1       7.078  16.333   2.497  1.00  0.00     0.001 A 
ATOM     33  C   UNL     1       7.271  14.386   1.096  1.00  0.00     0.001 A 
ATOM     34  C   UNL     1       7.075  15.757   1.231  1.00  0.00     0.000 A 
ENDBRANCH  24  29
ENDBRANCH  15  16
ENDBRANCH   1  15
TORSDOF 8
ENDMDL
MODEL 10
REMARK VINA RESULT:    -4.929      3.939      6.185
REMARK INTER + INTRA:         -10.373
REMARK INTER:                  -8.626
REMARK INTRA:                  -1.747
REMARK UNBOUND:                -3.138
REMARK SMILES CCN(Cc1cc(F)ccc1F)C(=O)Cn1c(=O)n(C(F)F)c2cnc(-c3ccccc3)nc21
REMARK SMILES IDX 13 1 14 2 3 3 2 4 1 5 4 6 5 7 6 8 11 9 7 10 10 11 9 12 12 13
REMARK SMILES IDX 8 14 15 15 16 16 17 17 34 18 18 19 19 20 23 21 33 22 24 23
REMARK SMILES IDX 26 24 25 25 20 26 21 27 22 28 27 29 28 30 32 31 29 32 31 33
REMARK SMILES IDX 30 34
REMARK H PARENT
ROOT
ATOM      1  C   UNL     1       5.490  16.066   5.926  1.00  0.00     0.243 C 
ATOM      2  O   UNL     1       4.960  16.634   4.966  1.00  0.00    -0.273 OA
ENDROOT
BRANCH   1   3
ATOM      3  N   UNL     1       4.739  15.280   6.805  1.00  0.00    -0.337 N 
BRANCH   3   4
ATOM      4  C   UNL     1       4.585  15.745   8.183  1.00  0.00     0.116 C 
ATOM      5  C   UNL     1       3.543  16.847   8.298  1.00  0.00     0.027 C 
ENDBRANCH   3   4
BRANCH   3   6
ATOM      6  C   UNL     1       4.297  13.915   6.507  1.00  0.00     0.158 C 
BRANCH   6   7
ATOM      7  C   UNL     1       2.799  13.770   6.446  1.00  0.00     0.010 A 
ATOM      8  C   UNL     1       2.055  14.169   5.325  1.00  0.00     0.047 A 
ATOM      9  C   UNL     1       2.104  13.277   7.558  1.00  0.00     0.128 A 
ATOM     10  C   UNL     1       0.668  14.045   5.327  1.00  0.00     0.123 A 
ATOM     11  C   UNL     1       0.716  13.153   7.557  1.00  0.00     0.042 A 
ATOM     12  C   UNL     1      -0.008  13.538   6.432  1.00  0.00     0.042 A 
ATOM     13  F   UNL     1       2.783  12.905   8.653  1.00  0.00    -0.207 F 
ATOM     14  F   UNL     1      -0.028  14.427   4.248  1.00  0.00    -0.207 F 
ENDBRANCH   6   7
ENDBRANCH   3   6
ENDBRANCH   1   3
BRANCH   1  15
ATOM     15  C   UNL     1       7.007  16.151   6.167  1.00  0.00     0.229 C 
BRANCH  15  16
ATOM     16  N   UNL     1       7.606  14.846   6.086  1.00  0.00    -0.267 N 
ATOM     17  C   UNL     1       7.838  13.971   7.159  1.00  0.00     0.335 A 
ATOM     18  C   UNL     1       7.810  14.159   4.884  1.00  0.00     0.165 A 
ATOM     19  O   UNL     1       7.734  14.221   8.348  1.00  0.00    -0.247 OA
ATOM     20  N   UNL     1       8.222  12.754   6.594  1.00  0.00    -0.230 N 
ATOM     21  C   UNL     1       8.211  12.882   5.209  1.00  0.00     0.113 A 
ATOM     22  N   UNL     1       7.665  14.640   3.651  1.00  0.00    -0.208 NA
ATOM     23  C   UNL     1       8.487  12.041   4.180  1.00  0.00     0.144 A 
ATOM     24  C   UNL     1       7.950  13.743   2.681  1.00  0.00     0.161 A 
ATOM     25  N   UNL     1       8.366  12.461   2.900  1.00  0.00    -0.234 NA
BRANCH  20  26
ATOM     26  C   UNL     1       8.614  11.615   7.335  1.00  0.00     0.453 C 
ATOM     27  F   UNL     1       7.833  10.553   7.006  1.00  0.00    -0.185 F 
ATOM     28  F   UNL     1       9.883  11.273   6.996  1.00  0.00    -0.185 F 
ENDBRANCH  20  26
BRANCH  24  29
ATOM     29  C   UNL     1       7.810  14.185   1.277  1.00  0.00     0.019 A 
ATOM     30  C   UNL     1       6.629  13.951   0.545  1.00  0.00     0.012 A 
ATOM     31  C   UNL     1       8.853  14.857   0.609  1.00  0.00     0.012 A 
ATOM     32  C   UNL     1       6.495  14.368  -0.784  1.00  0.00     0.001 A 
ATOM     33  C   UNL     1       8.723  15.276  -0.720  1.00  0.00     0.001 A 
ATOM     34  C   UNL     1       7.543  15.031  -1.415  1.00  0.00     0.000 A 
ENDBRANCH  24  29
ENDBRANCH  15  16
ENDBRANCH   1  15
TORSDOF 8
ENDMDL
