MODEL 1
REMARK VINA RESULT:    -5.500      0.000      0.000
REMARK INTER + INTRA:         -10.263
REMARK INTER:                  -7.750
REMARK INTRA:                  -2.513
REMARK UNBOUND:                -2.513
REMARK  Name = emap2_Bn-3,4diF_CHF2
REMARK  8 active torsions:
REMARK  status: ('A' for Active; 'I' for Inactive)
REMARK    1  A    between atoms: C_1  and  C_2
REMARK    2  A    between atoms: C_2  and  N_3
REMARK    3  A    between atoms: N_3  and  C_4
REMARK    4  A    between atoms: C_4  and  C_5
REMARK    5  A    between atoms: C_13  and  C_15
REMARK    6  A    between atoms: C_15  and  N_16
REMARK    7  A    between atoms: C_21  and  C_23
REMARK    8  A    between atoms: N_29  and  C_32
REMARK                            x       y       z     vdW  Elec       q    Type
REMARK                         _______ _______ _______ _____ _____    ______ ____
ROOT
ATOM      1  N   UNL     1       6.852  13.929   8.658  0.00  0.00    +0.000 N 
ATOM      2  C   UNL     1       6.068  13.709   7.517  0.00  0.00    +0.000 A 
ATOM      3  C   UNL     1       6.884  13.092   6.590  0.00  0.00    +0.000 A 
ATOM      4  C   UNL     1       6.353  12.818   5.372  0.00  0.00    +0.000 A 
ATOM      5  N   UNL     1       5.075  13.147   5.097  0.00  0.00    +0.000 NA
ATOM      6  C   UNL     1       4.341  13.754   6.076  0.00  0.00    +0.000 A 
ATOM      7  N   UNL     1       4.799  14.063   7.314  0.00  0.00    +0.000 NA
ATOM      8  N   UNL     1       8.142  12.899   7.148  0.00  0.00    +0.000 N 
ATOM      9  C   UNL     1       8.136  13.405   8.444  0.00  0.00    +0.000 A 
ATOM     10  O   UNL     1       9.072  13.411   9.228  0.00  0.00    +0.000 OA
ENDROOT
BRANCH   6  11
ATOM     11  C   UNL     1       2.965  14.161   5.715  0.00  0.00    +0.000 A 
ATOM     12  C   UNL     1       2.027  13.222   5.236  0.00  0.00    +0.000 A 
ATOM     13  C   UNL     1       0.738  13.600   4.848  0.00  0.00    +0.000 A 
ATOM     14  C   UNL     1       0.350  14.933   4.935  0.00  0.00    +0.000 A 
ATOM     15  C   UNL     1       1.247  15.881   5.420  0.00  0.00    +0.000 A 
ATOM     16  C   UNL     1       2.537  15.497   5.805  0.00  0.00    +0.000 A 
ENDBRANCH   6  11
BRANCH   8  17
ATOM     17  C   UNL     1       9.273  12.358   6.490  0.00  0.00    +0.000 C 
ATOM     18  F   UNL     1       9.030  11.070   6.136  0.00  0.00    +0.000 F 
ATOM     19  F   UNL     1       9.485  13.035   5.331  0.00  0.00    +0.000 F 
ENDBRANCH   8  17
BRANCH   1  20
ATOM     20  C   UNL     1       6.360  14.452   9.906  0.00  0.00    +0.000 C 
BRANCH  20  22
ATOM     21  N   UNL     1       4.125  13.797  10.874  0.00  0.00    +0.000 N 
ATOM     22  C   UNL     1       5.454  13.429  10.621  0.00  0.00    +0.000 C 
ATOM     23  O   UNL     1       5.913  12.330  10.942  0.00  0.00    +0.000 OA
BRANCH  21  25
ATOM     24  C   UNL     1       2.911  13.154  13.069  0.00  0.00    +0.000 C 
ATOM     25  C   UNL     1       3.181  12.919  11.590  0.00  0.00    +0.000 C 
ENDBRANCH  21  25
BRANCH  21  26
ATOM     26  C   UNL     1       3.564  15.096  10.467  0.00  0.00    +0.000 C 
BRANCH  26  27
ATOM     27  C   UNL     1       2.166  15.060   9.896  0.00  0.00    +0.000 A 
ATOM     28  C   UNL     1       1.356  16.195  10.055  0.00  0.00    +0.000 A 
ATOM     29  F   UNL     1       1.795  17.223  10.795  0.00  0.00    +0.000 F 
ATOM     30  C   UNL     1       0.108  16.302   9.440  0.00  0.00    +0.000 A 
ATOM     31  C   UNL     1      -0.357  15.252   8.652  0.00  0.00    +0.000 A 
ATOM     32  C   UNL     1       0.410  14.099   8.534  0.00  0.00    +0.000 A 
ATOM     33  F   UNL     1      -0.041  13.087   7.783  0.00  0.00    +0.000 F 
ATOM     34  C   UNL     1       1.651  13.985   9.159  0.00  0.00    +0.000 A 
ENDBRANCH  26  27
ENDBRANCH  21  26
ENDBRANCH  20  22
ENDBRANCH   1  20
TORSDOF 7
ENDMDL
MODEL 2
REMARK VINA RESULT:    -5.419      2.469      5.001
REMARK INTER + INTRA:         -10.150
REMARK INTER:                  -7.629
REMARK INTRA:                  -2.521
REMARK UNBOUND:                -2.513
REMARK  Name = emap2_Bn-3,4diF_CHF2
REMARK  8 active torsions:
REMARK  status: ('A' for Active; 'I' for Inactive)
REMARK    1  A    between atoms: C_1  and  C_2
REMARK    2  A    between atoms: C_2  and  N_3
REMARK    3  A    between atoms: N_3  and  C_4
REMARK    4  A    between atoms: C_4  and  C_5
REMARK    5  A    between atoms: C_13  and  C_15
REMARK    6  A    between atoms: C_15  and  N_16
REMARK    7  A    between atoms: C_21  and  C_23
REMARK    8  A    between atoms: N_29  and  C_32
REMARK                            x       y       z     vdW  Elec       q    Type
REMARK                         _______ _______ _______ _____ _____    ______ ____
ROOT
ATOM      1  N   UNL     1       6.276  13.195   9.459  0.00  0.00    +0.000 N 
ATOM      2  C   UNL     1       4.935  13.366   9.829  0.00  0.00    +0.000 A 
ATOM      3  C   UNL     1       4.694  12.486  10.865  0.00  0.00    +0.000 A 
ATOM      4  C   UNL     1       3.434  12.435  11.364  0.00  0.00    +0.000 A 
ATOM      5  N   UNL     1       2.467  13.221  10.852  0.00  0.00    +0.000 NA
ATOM      6  C   UNL     1       2.795  14.065   9.828  0.00  0.00    +0.000 A 
ATOM      7  N   UNL     1       4.028  14.171   9.274  0.00  0.00    +0.000 NA
ATOM      8  N   UNL     1       5.867  11.801  11.161  0.00  0.00    +0.000 N 
ATOM      9  C   UNL     1       6.868  12.242  10.301  0.00  0.00    +0.000 A 
ATOM     10  O   UNL     1       8.025  11.854  10.271  0.00  0.00    +0.000 OA
ENDROOT
BRANCH   6  11
ATOM     11  C   UNL     1       1.693  14.862   9.248  0.00  0.00    +0.000 A 
ATOM     12  C   UNL     1       1.758  16.270   9.194  0.00  0.00    +0.000 A 
ATOM     13  C   UNL     1       0.704  17.038   8.690  0.00  0.00    +0.000 A 
ATOM     14  C   UNL     1      -0.446  16.414   8.218  0.00  0.00    +0.000 A 
ATOM     15  C   UNL     1      -0.534  15.024   8.241  0.00  0.00    +0.000 A 
ATOM     16  C   UNL     1       0.523  14.260   8.749  0.00  0.00    +0.000 A 
ENDBRANCH   6  11
BRANCH   8  17
ATOM     17  C   UNL     1       6.011  10.767  12.118  0.00  0.00    +0.000 C 
ATOM     18  F   UNL     1       5.608  11.206  13.337  0.00  0.00    +0.000 F 
ATOM     19  F   UNL     1       5.184   9.739  11.793  0.00  0.00    +0.000 F 
ENDBRANCH   8  17
BRANCH   1  20
ATOM     20  C   UNL     1       6.970  13.998   8.487  0.00  0.00    +0.000 C 
BRANCH  20  22
ATOM     21  N   UNL     1       6.322  13.703   6.067  0.00  0.00    +0.000 N 
ATOM     22  C   UNL     1       7.103  13.255   7.142  0.00  0.00    +0.000 C 
ATOM     23  O   UNL     1       7.883  12.304   7.046  0.00  0.00    +0.000 OA
BRANCH  21  25
ATOM     24  C   UNL     1       7.230  13.583   3.645  0.00  0.00    +0.000 C 
ATOM     25  C   UNL     1       6.333  13.043   4.749  0.00  0.00    +0.000 C 
ENDBRANCH  21  25
BRANCH  21  26
ATOM     26  C   UNL     1       5.410  14.855   6.167  0.00  0.00    +0.000 C 
BRANCH  26  27
ATOM     27  C   UNL     1       3.951  14.565   5.906  0.00  0.00    +0.000 A 
ATOM     28  C   UNL     1       3.068  15.651   5.799  0.00  0.00    +0.000 A 
ATOM     29  F   UNL     1       3.514  16.892   6.039  0.00  0.00    +0.000 F 
ATOM     30  C   UNL     1       1.736  15.483   5.421  0.00  0.00    +0.000 A 
ATOM     31  C   UNL     1       1.259  14.203   5.149  0.00  0.00    +0.000 A 
ATOM     32  C   UNL     1       2.108  13.113   5.308  0.00  0.00    +0.000 A 
ATOM     33  F   UNL     1       1.647  11.882   5.054  0.00  0.00    +0.000 F 
ATOM     34  C   UNL     1       3.436  13.279   5.699  0.00  0.00    +0.000 A 
ENDBRANCH  26  27
ENDBRANCH  21  26
ENDBRANCH  20  22
ENDBRANCH   1  20
TORSDOF 7
ENDMDL
MODEL 3
REMARK VINA RESULT:    -5.217      3.145      5.758
REMARK INTER + INTRA:          -9.864
REMARK INTER:                  -8.255
REMARK INTRA:                  -1.609
REMARK UNBOUND:                -2.513
REMARK  Name = emap2_Bn-3,4diF_CHF2
REMARK  8 active torsions:
REMARK  status: ('A' for Active; 'I' for Inactive)
REMARK    1  A    between atoms: C_1  and  C_2
REMARK    2  A    between atoms: C_2  and  N_3
REMARK    3  A    between atoms: N_3  and  C_4
REMARK    4  A    between atoms: C_4  and  C_5
REMARK    5  A    between atoms: C_13  and  C_15
REMARK    6  A    between atoms: C_15  and  N_16
REMARK    7  A    between atoms: C_21  and  C_23
REMARK    8  A    between atoms: N_29  and  C_32
REMARK                            x       y       z     vdW  Elec       q    Type
REMARK                         _______ _______ _______ _____ _____    ______ ____
ROOT
ATOM      1  N   UNL     1       7.705  12.668   4.286  0.00  0.00    +0.000 N 
ATOM      2  C   UNL     1       8.334  12.010   5.353  0.00  0.00    +0.000 A 
ATOM      3  C   UNL     1       9.662  11.868   5.003  0.00  0.00    +0.000 A 
ATOM      4  C   UNL     1      10.471  11.209   5.870  0.00  0.00    +0.000 A 
ATOM      5  N   UNL     1       9.976  10.716   7.023  0.00  0.00    +0.000 NA
ATOM      6  C   UNL     1       8.649  10.905   7.287  0.00  0.00    +0.000 A 
ATOM      7  N   UNL     1       7.777  11.548   6.472  0.00  0.00    +0.000 NA
ATOM      8  N   UNL     1       9.870  12.454   3.760  0.00  0.00    +0.000 N 
ATOM      9  C   UNL     1       8.661  12.971   3.304  0.00  0.00    +0.000 A 
ATOM     10  O   UNL     1       8.469  13.549   2.247  0.00  0.00    +0.000 OA
ENDROOT
BRANCH   6  11
ATOM     11  C   UNL     1       8.128  10.291   8.529  0.00  0.00    +0.000 A 
ATOM     12  C   UNL     1       7.830   8.913   8.593  0.00  0.00    +0.000 A 
ATOM     13  C   UNL     1       7.295   8.328   9.745  0.00  0.00    +0.000 A 
ATOM     14  C   UNL     1       7.049   9.109  10.869  0.00  0.00    +0.000 A 
ATOM     15  C   UNL     1       7.348  10.468  10.843  0.00  0.00    +0.000 A 
ATOM     16  C   UNL     1       7.882  11.049   9.687  0.00  0.00    +0.000 A 
ENDBRANCH   6  11
BRANCH   8  17
ATOM     17  C   UNL     1      11.084  12.458   3.032  0.00  0.00    +0.000 C 
ATOM     18  F   UNL     1      10.926  11.781   1.866  0.00  0.00    +0.000 F 
ATOM     19  F   UNL     1      11.397  13.735   2.689  0.00  0.00    +0.000 F 
ENDBRANCH   8  17
BRANCH   1  20
ATOM     20  C   UNL     1       6.337  13.113   4.286  0.00  0.00    +0.000 C 
BRANCH  20  22
ATOM     21  N   UNL     1       5.432  14.675   6.048  0.00  0.00    +0.000 N 
ATOM     22  C   UNL     1       6.210  14.527   4.891  0.00  0.00    +0.000 C 
ATOM     23  O   UNL     1       6.790  15.474   4.353  0.00  0.00    +0.000 OA
BRANCH  21  25
ATOM     24  C   UNL     1       4.166  16.934   6.105  0.00  0.00    +0.000 C 
ATOM     25  C   UNL     1       5.203  15.984   6.687  0.00  0.00    +0.000 C 
ENDBRANCH  21  25
BRANCH  21  26
ATOM     26  C   UNL     1       4.760  13.545   6.711  0.00  0.00    +0.000 C 
BRANCH  26  27
ATOM     27  C   UNL     1       3.251  13.556   6.662  0.00  0.00    +0.000 A 
ATOM     28  C   UNL     1       2.550  13.731   7.867  0.00  0.00    +0.000 A 
ATOM     29  F   UNL     1       3.225  13.770   9.024  0.00  0.00    +0.000 F 
ATOM     30  C   UNL     1       1.166  13.894   7.896  0.00  0.00    +0.000 A 
ATOM     31  C   UNL     1       0.449  13.876   6.703  0.00  0.00    +0.000 A 
ATOM     32  C   UNL     1       1.124  13.646   5.508  0.00  0.00    +0.000 A 
ATOM     33  F   UNL     1       0.434  13.620   4.362  0.00  0.00    +0.000 F 
ATOM     34  C   UNL     1       2.507  13.468   5.479  0.00  0.00    +0.000 A 
ENDBRANCH  26  27
ENDBRANCH  21  26
ENDBRANCH  20  22
ENDBRANCH   1  20
TORSDOF 7
ENDMDL
