MODEL 1
REMARK VINA RESULT:    -5.674      0.000      0.000
REMARK INTER + INTRA:         -11.095
REMARK INTER:                  -8.327
REMARK INTRA:                  -2.768
REMARK UNBOUND:                -2.768
REMARK  Name = emap2_Bn-4OCF3_Me
REMARK  10 active torsions:
REMARK  status: ('A' for Active; 'I' for Inactive)
REMARK    1  A    between atoms: C_1  and  C_2
REMARK    2  A    between atoms: C_2  and  N_3
REMARK    3  A    between atoms: N_3  and  C_4
REMARK    4  A    between atoms: C_4  and  C_5
REMARK    5  A    between atoms: C_8  and  O_9
REMARK    6  A    between atoms: O_9  and  C_10
REMARK    7  A    between atoms: C_16  and  C_18
REMARK    8  A    between atoms: C_18  and  N_19
REMARK    9  A    between atoms: C_24  and  C_26
REMARK   10  A    between atoms: N_32  and  C_35
REMARK                            x       y       z     vdW  Elec       q    Type
REMARK                         _______ _______ _______ _____ _____    ______ ____
ROOT
ATOM      1  C   UNL     1       6.430  14.091  10.008  0.00  0.00    +0.000 C 
ENDROOT
BRANCH   1   2
ATOM      2  N   UNL     1       7.028  13.686   8.762  0.00  0.00    +0.000 N 
ATOM      3  C   UNL     1       6.338  13.585   7.554  0.00  0.00    +0.000 A 
ATOM      4  C   UNL     1       7.219  13.077   6.627  0.00  0.00    +0.000 A 
ATOM      5  C   UNL     1       6.751  12.891   5.367  0.00  0.00    +0.000 A 
ATOM      6  N   UNL     1       5.471  13.182   5.060  0.00  0.00    +0.000 NA
ATOM      7  C   UNL     1       4.668  13.670   6.050  0.00  0.00    +0.000 A 
ATOM      8  N   UNL     1       5.063  13.908   7.321  0.00  0.00    +0.000 NA
ATOM      9  N   UNL     1       8.458  12.860   7.237  0.00  0.00    +0.000 N 
ATOM     10  C   UNL     1       8.341  13.218   8.594  0.00  0.00    +0.000 A 
ATOM     11  O   UNL     1       9.219  13.152   9.439  0.00  0.00    +0.000 OA
ATOM     12  C   UNL     1       9.636  12.322   6.625  0.00  0.00    +0.000 C 
BRANCH   7  13
ATOM     13  C   UNL     1       3.251  13.922   5.707  0.00  0.00    +0.000 A 
ATOM     14  C   UNL     1       2.720  15.229   5.718  0.00  0.00    +0.000 A 
ATOM     15  C   UNL     1       1.390  15.484   5.370  0.00  0.00    +0.000 A 
ATOM     16  C   UNL     1       0.554  14.432   5.007  0.00  0.00    +0.000 A 
ATOM     17  C   UNL     1       1.046  13.131   4.996  0.00  0.00    +0.000 A 
ATOM     18  C   UNL     1       2.378  12.884   5.345  0.00  0.00    +0.000 A 
ENDBRANCH   7  13
ENDBRANCH   1   2
BRANCH   1  20
ATOM     19  N   UNL     1       4.713  13.033  11.537  0.00  0.00    +0.000 N 
ATOM     20  C   UNL     1       5.867  12.881  10.766  0.00  0.00    +0.000 C 
ATOM     21  O   UNL     1       6.454  11.794  10.692  0.00  0.00    +0.000 OA
BRANCH  19  23
ATOM     22  C   UNL     1       3.338  10.927  11.743  0.00  0.00    +0.000 C 
ATOM     23  C   UNL     1       4.297  11.914  12.396  0.00  0.00    +0.000 C 
ENDBRANCH  19  23
BRANCH  19  24
ATOM     24  C   UNL     1       3.950  14.281  11.621  0.00  0.00    +0.000 C 
BRANCH  24  25
ATOM     25  C   UNL     1       2.689  14.341  10.780  0.00  0.00    +0.000 A 
ATOM     26  C   UNL     1       2.575  13.768   9.507  0.00  0.00    +0.000 A 
ATOM     27  C   UNL     1       1.426  13.959   8.723  0.00  0.00    +0.000 A 
ATOM     28  C   UNL     1       0.351  14.691   9.217  0.00  0.00    +0.000 A 
ATOM     29  C   UNL     1       0.447  15.244  10.497  0.00  0.00    +0.000 A 
ATOM     30  C   UNL     1       1.595  15.068  11.273  0.00  0.00    +0.000 A 
BRANCH  28  31
ATOM     31  O   UNL     1      -0.821  14.967   8.585  0.00  0.00    +0.000 OA
BRANCH  31  32
ATOM     32  C   UNL     1      -1.089  16.264   8.079  0.00  0.00    +0.000 C 
ATOM     33  F   UNL     1       0.016  17.008   7.877  0.00  0.00    +0.000 F 
ATOM     34  F   UNL     1      -1.712  16.126   6.886  0.00  0.00    +0.000 F 
ATOM     35  F   UNL     1      -1.924  16.921   8.912  0.00  0.00    +0.000 F 
ENDBRANCH  31  32
ENDBRANCH  28  31
ENDBRANCH  24  25
ENDBRANCH  19  24
ENDBRANCH   1  20
TORSDOF 8
ENDMDL
MODEL 2
REMARK VINA RESULT:    -5.642      3.242      6.075
REMARK INTER + INTRA:         -11.048
REMARK INTER:                  -9.454
REMARK INTRA:                  -1.594
REMARK UNBOUND:                -2.768
REMARK  Name = emap2_Bn-4OCF3_Me
REMARK  10 active torsions:
REMARK  status: ('A' for Active; 'I' for Inactive)
REMARK    1  A    between atoms: C_1  and  C_2
REMARK    2  A    between atoms: C_2  and  N_3
REMARK    3  A    between atoms: N_3  and  C_4
REMARK    4  A    between atoms: C_4  and  C_5
REMARK    5  A    between atoms: C_8  and  O_9
REMARK    6  A    between atoms: O_9  and  C_10
REMARK    7  A    between atoms: C_16  and  C_18
REMARK    8  A    between atoms: C_18  and  N_19
REMARK    9  A    between atoms: C_24  and  C_26
REMARK   10  A    between atoms: N_32  and  C_35
REMARK                            x       y       z     vdW  Elec       q    Type
REMARK                         _______ _______ _______ _____ _____    ______ ____
ROOT
ATOM      1  C   UNL     1       6.924  12.420   6.154  0.00  0.00    +0.000 C 
ENDROOT
BRANCH   1   2
ATOM      2  N   UNL     1       8.252  11.917   5.911  0.00  0.00    +0.000 N 
ATOM      3  C   UNL     1       8.825  10.846   6.596  0.00  0.00    +0.000 A 
ATOM      4  C   UNL     1      10.123  10.733   6.156  0.00  0.00    +0.000 A 
ATOM      5  C   UNL     1      10.877   9.745   6.701  0.00  0.00    +0.000 A 
ATOM      6  N   UNL     1      10.363   8.930   7.644  0.00  0.00    +0.000 NA
ATOM      7  C   UNL     1       9.068   9.128   8.027  0.00  0.00    +0.000 A 
ATOM      8  N   UNL     1       8.245  10.070   7.516  0.00  0.00    +0.000 NA
ATOM      9  N   UNL     1      10.373  11.719   5.196  0.00  0.00    +0.000 N 
ATOM     10  C   UNL     1       9.203  12.489   5.052  0.00  0.00    +0.000 A 
ATOM     11  O   UNL     1       9.052  13.445   4.308  0.00  0.00    +0.000 OA
ATOM     12  C   UNL     1      11.606  11.955   4.507  0.00  0.00    +0.000 C 
BRANCH   7  13
ATOM     13  C   UNL     1       8.545   8.264   9.108  0.00  0.00    +0.000 A 
ATOM     14  C   UNL     1       9.370   7.314   9.746  0.00  0.00    +0.000 A 
ATOM     15  C   UNL     1       8.895   6.511  10.788  0.00  0.00    +0.000 A 
ATOM     16  C   UNL     1       7.577   6.635  11.215  0.00  0.00    +0.000 A 
ATOM     17  C   UNL     1       6.735   7.556  10.598  0.00  0.00    +0.000 A 
ATOM     18  C   UNL     1       7.217   8.358   9.557  0.00  0.00    +0.000 A 
ENDBRANCH   7  13
ENDBRANCH   1   2
BRANCH   1  20
ATOM     19  N   UNL     1       6.344  14.770   6.897  0.00  0.00    +0.000 N 
ATOM     20  C   UNL     1       6.946  13.546   7.197  0.00  0.00    +0.000 C 
ATOM     21  O   UNL     1       7.511  13.355   8.282  0.00  0.00    +0.000 OA
BRANCH  19  23
ATOM     22  C   UNL     1       5.413  16.076   8.846  0.00  0.00    +0.000 C 
ATOM     23  C   UNL     1       6.535  15.888   7.833  0.00  0.00    +0.000 C 
ENDBRANCH  19  23
BRANCH  19  24
ATOM     24  C   UNL     1       5.620  15.035   5.652  0.00  0.00    +0.000 C 
BRANCH  24  25
ATOM     25  C   UNL     1       4.121  14.806   5.699  0.00  0.00    +0.000 A 
ATOM     26  C   UNL     1       3.183  15.831   5.873  0.00  0.00    +0.000 A 
ATOM     27  C   UNL     1       1.816  15.549   6.032  0.00  0.00    +0.000 A 
ATOM     28  C   UNL     1       1.358  14.237   5.975  0.00  0.00    +0.000 A 
ATOM     29  C   UNL     1       2.285  13.210   5.775  0.00  0.00    +0.000 A 
ATOM     30  C   UNL     1       3.647  13.487   5.632  0.00  0.00    +0.000 A 
BRANCH  28  31
ATOM     31  O   UNL     1       0.077  13.803   6.112  0.00  0.00    +0.000 OA
BRANCH  31  32
ATOM     32  C   UNL     1      -0.473  13.547   7.394  0.00  0.00    +0.000 C 
ATOM     33  F   UNL     1       0.375  13.801   8.410  0.00  0.00    +0.000 F 
ATOM     34  F   UNL     1      -1.552  14.348   7.554  0.00  0.00    +0.000 F 
ATOM     35  F   UNL     1      -0.890  12.266   7.470  0.00  0.00    +0.000 F 
ENDBRANCH  31  32
ENDBRANCH  28  31
ENDBRANCH  24  25
ENDBRANCH  19  24
ENDBRANCH   1  20
TORSDOF 8
ENDMDL
MODEL 3
REMARK VINA RESULT:    -5.383      3.398      6.209
REMARK INTER + INTRA:         -10.669
REMARK INTER:                  -9.072
REMARK INTRA:                  -1.597
REMARK UNBOUND:                -2.768
REMARK  Name = emap2_Bn-4OCF3_Me
REMARK  10 active torsions:
REMARK  status: ('A' for Active; 'I' for Inactive)
REMARK    1  A    between atoms: C_1  and  C_2
REMARK    2  A    between atoms: C_2  and  N_3
REMARK    3  A    between atoms: N_3  and  C_4
REMARK    4  A    between atoms: C_4  and  C_5
REMARK    5  A    between atoms: C_8  and  O_9
REMARK    6  A    between atoms: O_9  and  C_10
REMARK    7  A    between atoms: C_16  and  C_18
REMARK    8  A    between atoms: C_18  and  N_19
REMARK    9  A    between atoms: C_24  and  C_26
REMARK   10  A    between atoms: N_32  and  C_35
REMARK                            x       y       z     vdW  Elec       q    Type
REMARK                         _______ _______ _______ _____ _____    ______ ____
ROOT
ATOM      1  C   UNL     1       7.447  13.308   3.389  0.00  0.00    +0.000 C 
ENDROOT
BRANCH   1   2
ATOM      2  N   UNL     1       8.775  12.763   3.507  0.00  0.00    +0.000 N 
ATOM      3  C   UNL     1       9.214  11.986   4.579  0.00  0.00    +0.000 A 
ATOM      4  C   UNL     1      10.553  11.742   4.379  0.00  0.00    +0.000 A 
ATOM      5  C   UNL     1      11.193  10.998   5.317  0.00  0.00    +0.000 A 
ATOM      6  N   UNL     1      10.531  10.540   6.398  0.00  0.00    +0.000 NA
ATOM      7  C   UNL     1       9.206  10.844   6.516  0.00  0.00    +0.000 A 
ATOM      8  N   UNL     1       8.492  11.556   5.617  0.00  0.00    +0.000 NA
ATOM      9  N   UNL     1      10.962  12.353   3.190  0.00  0.00    +0.000 N 
ATOM     10  C   UNL     1       9.850  13.023   2.643  0.00  0.00    +0.000 A 
ATOM     11  O   UNL     1       9.833  13.676   1.612  0.00  0.00    +0.000 OA
ATOM     12  C   UNL     1      12.281  12.356   2.633  0.00  0.00    +0.000 C 
BRANCH   7  13
ATOM     13  C   UNL     1       8.515  10.387   7.742  0.00  0.00    +0.000 A 
ATOM     14  C   UNL     1       8.158  11.295   8.761  0.00  0.00    +0.000 A 
ATOM     15  C   UNL     1       7.481  10.879   9.911  0.00  0.00    +0.000 A 
ATOM     16  C   UNL     1       7.149   9.538  10.075  0.00  0.00    +0.000 A 
ATOM     17  C   UNL     1       7.497   8.616   9.093  0.00  0.00    +0.000 A 
ATOM     18  C   UNL     1       8.173   9.039   7.943  0.00  0.00    +0.000 A 
ENDBRANCH   7  13
ENDBRANCH   1   2
BRANCH   1  20
ATOM     19  N   UNL     1       7.053  15.122   5.110  0.00  0.00    +0.000 N 
ATOM     20  C   UNL     1       7.421  14.785   3.806  0.00  0.00    +0.000 C 
ATOM     21  O   UNL     1       7.714  15.654   2.975  0.00  0.00    +0.000 OA
BRANCH  19  23
ATOM     22  C   UNL     1       5.529  17.129   4.980  0.00  0.00    +0.000 C 
ATOM     23  C   UNL     1       6.860  16.543   5.434  0.00  0.00    +0.000 C 
ENDBRANCH  19  23
BRANCH  19  24
ATOM     24  C   UNL     1       6.746  14.135   6.148  0.00  0.00    +0.000 C 
BRANCH  24  25
ATOM     25  C   UNL     1       5.275  13.947   6.466  0.00  0.00    +0.000 A 
ATOM     26  C   UNL     1       4.318  13.558   5.520  0.00  0.00    +0.000 A 
ATOM     27  C   UNL     1       2.952  13.519   5.840  0.00  0.00    +0.000 A 
ATOM     28  C   UNL     1       2.521  13.825   7.126  0.00  0.00    +0.000 A 
ATOM     29  C   UNL     1       3.473  14.188   8.084  0.00  0.00    +0.000 A 
ATOM     30  C   UNL     1       4.832  14.243   7.764  0.00  0.00    +0.000 A 
BRANCH  28  31
ATOM     31  O   UNL     1       1.243  13.836   7.589  0.00  0.00    +0.000 OA
BRANCH  31  32
ATOM     32  C   UNL     1       0.280  12.919   7.095  0.00  0.00    +0.000 C 
ATOM     33  F   UNL     1       0.684  11.635   7.130  0.00  0.00    +0.000 F 
ATOM     34  F   UNL     1      -0.828  13.021   7.864  0.00  0.00    +0.000 F 
ATOM     35  F   UNL     1      -0.059  13.246   5.829  0.00  0.00    +0.000 F 
ENDBRANCH  31  32
ENDBRANCH  28  31
ENDBRANCH  24  25
ENDBRANCH  19  24
ENDBRANCH   1  20
TORSDOF 8
ENDMDL
