MODEL 1
REMARK VINA RESULT:    -5.634      0.000      0.000
REMARK INTER + INTRA:         -11.254
REMARK INTER:                  -8.598
REMARK INTRA:                  -2.656
REMARK UNBOUND:                -2.656
REMARK  Name = emap2_Bn-4OMe_CH2CF3
REMARK  11 active torsions:
REMARK  status: ('A' for Active; 'I' for Inactive)
REMARK    1  A    between atoms: C_1  and  C_2
REMARK    2  A    between atoms: C_2  and  N_3
REMARK    3  A    between atoms: N_3  and  C_4
REMARK    4  A    between atoms: C_4  and  C_5
REMARK    5  A    between atoms: C_8  and  O_9
REMARK    6  A    between atoms: O_9  and  C_10
REMARK    7  A    between atoms: C_13  and  C_15
REMARK    8  A    between atoms: C_15  and  N_16
REMARK    9  A    between atoms: C_21  and  C_23
REMARK   10  A    between atoms: N_29  and  C_32
REMARK   11  A    between atoms: C_32  and  C_33
REMARK                            x       y       z     vdW  Elec       q    Type
REMARK                         _______ _______ _______ _____ _____    ______ ____
ROOT
ATOM      1  N   UNL     1       7.073  13.684   8.667  0.00  0.00    +0.000 N 
ATOM      2  C   UNL     1       6.314  13.577   7.489  0.00  0.00    +0.000 A 
ATOM      3  C   UNL     1       7.161  13.086   6.511  0.00  0.00    +0.000 A 
ATOM      4  C   UNL     1       6.638  12.893   5.272  0.00  0.00    +0.000 A 
ATOM      5  N   UNL     1       5.349  13.181   5.021  0.00  0.00    +0.000 NA
ATOM      6  C   UNL     1       4.586  13.676   6.039  0.00  0.00    +0.000 A 
ATOM      7  N   UNL     1       5.034  13.894   7.299  0.00  0.00    +0.000 NA
ATOM      8  N   UNL     1       8.432  12.906   7.053  0.00  0.00    +0.000 N 
ATOM      9  C   UNL     1       8.392  13.308   8.396  0.00  0.00    +0.000 A 
ATOM     10  O   UNL     1       9.343  13.317   9.163  0.00  0.00    +0.000 OA
ENDROOT
BRANCH   6  11
ATOM     11  C   UNL     1       3.185  14.011   5.708  0.00  0.00    +0.000 A 
ATOM     12  C   UNL     1       2.265  13.007   5.321  0.00  0.00    +0.000 A 
ATOM     13  C   UNL     1       0.947  13.301   4.992  0.00  0.00    +0.000 A 
ATOM     14  C   UNL     1       0.499  14.614   5.035  0.00  0.00    +0.000 A 
ATOM     15  C   UNL     1       1.375  15.630   5.410  0.00  0.00    +0.000 A 
ATOM     16  C   UNL     1       2.701  15.331   5.746  0.00  0.00    +0.000 A 
ENDBRANCH   6  11
BRANCH   8  17
ATOM     17  C   UNL     1       9.630  12.468   6.373  0.00  0.00    +0.000 C 
BRANCH  17  18
ATOM     18  C   UNL     1       9.865  10.954   6.375  0.00  0.00    +0.000 C 
ATOM     19  F   UNL     1      10.806  10.555   5.493  0.00  0.00    +0.000 F 
ATOM     20  F   UNL     1      10.285  10.556   7.603  0.00  0.00    +0.000 F 
ATOM     21  F   UNL     1       8.725  10.280   6.108  0.00  0.00    +0.000 F 
ENDBRANCH  17  18
ENDBRANCH   8  17
BRANCH   1  22
ATOM     22  C   UNL     1       6.580  14.116   9.952  0.00  0.00    +0.000 C 
BRANCH  22  24
ATOM     23  N   UNL     1       4.738  13.233  11.460  0.00  0.00    +0.000 N 
ATOM     24  C   UNL     1       5.913  12.985  10.741  0.00  0.00    +0.000 C 
ATOM     25  O   UNL     1       6.474  11.885  10.737  0.00  0.00    +0.000 OA
BRANCH  23  27
ATOM     26  C   UNL     1       3.305  11.069  11.792  0.00  0.00    +0.000 C 
ATOM     27  C   UNL     1       4.158  12.207  12.357  0.00  0.00    +0.000 C 
ENDBRANCH  23  27
BRANCH  23  28
ATOM     28  C   UNL     1       4.020  14.536  11.422  0.00  0.00    +0.000 C 
BRANCH  28  29
ATOM     29  C   UNL     1       2.707  14.538  10.655  0.00  0.00    +0.000 A 
ATOM     30  C   UNL     1       2.528  13.762   9.506  0.00  0.00    +0.000 A 
ATOM     31  C   UNL     1       1.378  13.889   8.717  0.00  0.00    +0.000 A 
ATOM     32  C   UNL     1       0.358  14.759   9.086  0.00  0.00    +0.000 A 
ATOM     33  C   UNL     1       0.453  15.425  10.308  0.00  0.00    +0.000 A 
ATOM     34  C   UNL     1       1.617  15.316  11.088  0.00  0.00    +0.000 A 
BRANCH  32  35
ATOM     35  O   UNL     1      -0.757  15.035   8.338  0.00  0.00    +0.000 OA
ATOM     36  C   UNL     1      -1.083  16.413   8.181  0.00  0.00    +0.000 C 
ENDBRANCH  32  35
ENDBRANCH  28  29
ENDBRANCH  23  28
ENDBRANCH  22  24
ENDBRANCH   1  22
TORSDOF 9
ENDMDL
MODEL 2
REMARK VINA RESULT:    -5.526      2.397      4.205
REMARK INTER + INTRA:         -11.089
REMARK INTER:                  -9.697
REMARK INTRA:                  -1.392
REMARK UNBOUND:                -2.656
REMARK  Name = emap2_Bn-4OMe_CH2CF3
REMARK  11 active torsions:
REMARK  status: ('A' for Active; 'I' for Inactive)
REMARK    1  A    between atoms: C_1  and  C_2
REMARK    2  A    between atoms: C_2  and  N_3
REMARK    3  A    between atoms: N_3  and  C_4
REMARK    4  A    between atoms: C_4  and  C_5
REMARK    5  A    between atoms: C_8  and  O_9
REMARK    6  A    between atoms: O_9  and  C_10
REMARK    7  A    between atoms: C_13  and  C_15
REMARK    8  A    between atoms: C_15  and  N_16
REMARK    9  A    between atoms: C_21  and  C_23
REMARK   10  A    between atoms: N_29  and  C_32
REMARK   11  A    between atoms: C_32  and  C_33
REMARK                            x       y       z     vdW  Elec       q    Type
REMARK                         _______ _______ _______ _____ _____    ______ ____
ROOT
ATOM      1  N   UNL     1       6.951  13.071   8.403  0.00  0.00    +0.000 N 
ATOM      2  C   UNL     1       7.394  12.869   7.085  0.00  0.00    +0.000 A 
ATOM      3  C   UNL     1       8.147  11.709   7.089  0.00  0.00    +0.000 A 
ATOM      4  C   UNL     1       8.681  11.307   5.907  0.00  0.00    +0.000 A 
ATOM      5  N   UNL     1       8.483  12.025   4.787  0.00  0.00    +0.000 NA
ATOM      6  C   UNL     1       7.738  13.166   4.873  0.00  0.00    +0.000 A 
ATOM      7  N   UNL     1       7.173  13.630   6.014  0.00  0.00    +0.000 NA
ATOM      8  N   UNL     1       8.197  11.199   8.385  0.00  0.00    +0.000 N 
ATOM      9  C   UNL     1       7.475  12.065   9.220  0.00  0.00    +0.000 A 
ATOM     10  O   UNL     1       7.343  11.939  10.428  0.00  0.00    +0.000 OA
ENDROOT
BRANCH   6  11
ATOM     11  C   UNL     1       7.577  13.942   3.625  0.00  0.00    +0.000 A 
ATOM     12  C   UNL     1       7.582  13.302   2.362  0.00  0.00    +0.000 A 
ATOM     13  C   UNL     1       7.445  14.013   1.175  0.00  0.00    +0.000 A 
ATOM     14  C   UNL     1       7.300  15.392   1.207  0.00  0.00    +0.000 A 
ATOM     15  C   UNL     1       7.292  16.058   2.431  0.00  0.00    +0.000 A 
ATOM     16  C   UNL     1       7.424  15.340   3.625  0.00  0.00    +0.000 A 
ENDBRANCH   6  11
BRANCH   8  17
ATOM     17  C   UNL     1       8.921  10.038   8.852  0.00  0.00    +0.000 C 
BRANCH  17  18
ATOM     18  C   UNL     1       8.301   8.688   8.474  0.00  0.00    +0.000 C 
ATOM     19  F   UNL     1       6.957   8.661   8.600  0.00  0.00    +0.000 F 
ATOM     20  F   UNL     1       8.580   8.402   7.177  0.00  0.00    +0.000 F 
ATOM     21  F   UNL     1       8.814   7.686   9.221  0.00  0.00    +0.000 F 
ENDBRANCH  17  18
ENDBRANCH   8  17
BRANCH   1  22
ATOM     22  C   UNL     1       6.097  14.143   8.852  0.00  0.00    +0.000 C 
BRANCH  22  24
ATOM     23  N   UNL     1       3.678  13.657   8.252  0.00  0.00    +0.000 N 
ATOM     24  C   UNL     1       4.689  13.665   9.220  0.00  0.00    +0.000 C 
ATOM     25  O   UNL     1       4.493  13.332  10.392  0.00  0.00    +0.000 OA
BRANCH  23  27
ATOM     26  C   UNL     1       1.384  14.421   9.250  0.00  0.00    +0.000 C 
ATOM     27  C   UNL     1       2.275  13.353   8.612  0.00  0.00    +0.000 C 
ENDBRANCH  23  27
BRANCH  23  28
ATOM     28  C   UNL     1       3.918  13.996   6.822  0.00  0.00    +0.000 C 
BRANCH  28  29
ATOM     29  C   UNL     1       2.751  14.656   6.102  0.00  0.00    +0.000 A 
ATOM     30  C   UNL     1       2.620  16.046   6.040  0.00  0.00    +0.000 A 
ATOM     31  C   UNL     1       1.467  16.643   5.517  0.00  0.00    +0.000 A 
ATOM     32  C   UNL     1       0.438  15.864   4.998  0.00  0.00    +0.000 A 
ATOM     33  C   UNL     1       0.620  14.483   4.913  0.00  0.00    +0.000 A 
ATOM     34  C   UNL     1       1.767  13.883   5.459  0.00  0.00    +0.000 A 
BRANCH  32  35
ATOM     35  O   UNL     1      -0.770  16.338   4.558  0.00  0.00    +0.000 OA
ATOM     36  C   UNL     1      -1.003  17.732   4.744  0.00  0.00    +0.000 C 
ENDBRANCH  32  35
ENDBRANCH  28  29
ENDBRANCH  23  28
ENDBRANCH  22  24
ENDBRANCH   1  22
TORSDOF 9
ENDMDL
MODEL 3
REMARK VINA RESULT:    -5.268      3.283      7.519
REMARK INTER + INTRA:         -10.695
REMARK INTER:                  -7.911
REMARK INTRA:                  -2.783
REMARK UNBOUND:                -2.656
REMARK  Name = emap2_Bn-4OMe_CH2CF3
REMARK  11 active torsions:
REMARK  status: ('A' for Active; 'I' for Inactive)
REMARK    1  A    between atoms: C_1  and  C_2
REMARK    2  A    between atoms: C_2  and  N_3
REMARK    3  A    between atoms: N_3  and  C_4
REMARK    4  A    between atoms: C_4  and  C_5
REMARK    5  A    between atoms: C_8  and  O_9
REMARK    6  A    between atoms: O_9  and  C_10
REMARK    7  A    between atoms: C_13  and  C_15
REMARK    8  A    between atoms: C_15  and  N_16
REMARK    9  A    between atoms: C_21  and  C_23
REMARK   10  A    between atoms: N_29  and  C_32
REMARK   11  A    between atoms: C_32  and  C_33
REMARK                            x       y       z     vdW  Elec       q    Type
REMARK                         _______ _______ _______ _____ _____    ______ ____
ROOT
ATOM      1  N   UNL     1       5.328  13.660   8.407  0.00  0.00    +0.000 N 
ATOM      2  C   UNL     1       6.033  13.464   7.207  0.00  0.00    +0.000 A 
ATOM      3  C   UNL     1       5.135  13.678   6.176  0.00  0.00    +0.000 A 
ATOM      4  C   UNL     1       5.599  13.546   4.906  0.00  0.00    +0.000 A 
ATOM      5  N   UNL     1       6.882  13.212   4.678  0.00  0.00    +0.000 NA
ATOM      6  C   UNL     1       7.698  13.005   5.753  0.00  0.00    +0.000 A 
ATOM      7  N   UNL     1       7.309  13.118   7.046  0.00  0.00    +0.000 NA
ATOM      8  N   UNL     1       3.885  13.982   6.712  0.00  0.00    +0.000 N 
ATOM      9  C   UNL     1       3.992  13.943   8.110  0.00  0.00    +0.000 A 
ATOM     10  O   UNL     1       3.075  14.127   8.897  0.00  0.00    +0.000 OA
ENDROOT
BRANCH   6  11
ATOM     11  C   UNL     1       9.089  12.606   5.454  0.00  0.00    +0.000 A 
ATOM     12  C   UNL     1      10.043  12.451   6.488  0.00  0.00    +0.000 A 
ATOM     13  C   UNL     1      11.361  12.089   6.229  0.00  0.00    +0.000 A 
ATOM     14  C   UNL     1      11.774  11.871   4.922  0.00  0.00    +0.000 A 
ATOM     15  C   UNL     1      10.865  12.015   3.877  0.00  0.00    +0.000 A 
ATOM     16  C   UNL     1       9.537  12.374   4.141  0.00  0.00    +0.000 A 
ENDBRANCH   6  11
BRANCH   8  17
ATOM     17  C   UNL     1       2.651  14.219   5.999  0.00  0.00    +0.000 C 
BRANCH  17  18
ATOM     18  C   UNL     1       1.864  12.959   5.620  0.00  0.00    +0.000 C 
ATOM     19  F   UNL     1       1.456  12.240   6.688  0.00  0.00    +0.000 F 
ATOM     20  F   UNL     1       0.747  13.305   4.931  0.00  0.00    +0.000 F 
ATOM     21  F   UNL     1       2.591  12.149   4.820  0.00  0.00    +0.000 F 
ENDBRANCH  17  18
ENDBRANCH   8  17
BRANCH   1  22
ATOM     22  C   UNL     1       5.884  13.581   9.735  0.00  0.00    +0.000 C 
BRANCH  22  24
ATOM     23  N   UNL     1       6.653  11.280  10.487  0.00  0.00    +0.000 N 
ATOM     24  C   UNL     1       5.626  12.227  10.406  0.00  0.00    +0.000 C 
ATOM     25  O   UNL     1       4.485  12.012  10.824  0.00  0.00    +0.000 OA
BRANCH  23  27
ATOM     26  C   UNL     1       6.937   9.455  12.340  0.00  0.00    +0.000 C 
ATOM     27  C   UNL     1       6.393   9.910  10.984  0.00  0.00    +0.000 C 
ENDBRANCH  23  27
BRANCH  23  28
ATOM     28  C   UNL     1       8.048  11.551  10.042  0.00  0.00    +0.000 C 
BRANCH  28  29
ATOM     29  C   UNL     1       8.672  10.483   9.157  0.00  0.00    +0.000 A 
ATOM     30  C   UNL     1       9.955   9.987   9.400  0.00  0.00    +0.000 A 
ATOM     31  C   UNL     1      10.583   9.125   8.494  0.00  0.00    +0.000 A 
ATOM     32  C   UNL     1       9.923   8.699   7.345  0.00  0.00    +0.000 A 
ATOM     33  C   UNL     1       8.588   9.063   7.166  0.00  0.00    +0.000 A 
ATOM     34  C   UNL     1       7.966   9.946   8.064  0.00  0.00    +0.000 A 
BRANCH  32  35
ATOM     35  O   UNL     1      10.479   7.944   6.347  0.00  0.00    +0.000 OA
ATOM     36  C   UNL     1      11.702   7.284   6.665  0.00  0.00    +0.000 C 
ENDBRANCH  32  35
ENDBRANCH  28  29
ENDBRANCH  23  28
ENDBRANCH  22  24
ENDBRANCH   1  22
TORSDOF 9
ENDMDL
