MODEL 1
REMARK VINA RESULT:    -6.076      0.000      0.000
REMARK INTER + INTRA:          -9.156
REMARK INTER:                  -8.207
REMARK INTRA:                  -0.949
REMARK UNBOUND:                -0.949
REMARK  Name = emap3_Bn-3,4diCl_Me
REMARK  8 active torsions:
REMARK  status: ('A' for Active; 'I' for Inactive)
REMARK    1  A    between atoms: C_1  and  C_2
REMARK    2  A    between atoms: C_2  and  N_3
REMARK    3  A    between atoms: N_3  and  C_4
REMARK    4  A    between atoms: C_4  and  C_5
REMARK    5  A    between atoms: C_13  and  C_15
REMARK    6  A    between atoms: C_15  and  N_16
REMARK    7  A    between atoms: C_21  and  C_23
REMARK    8  A    between atoms: N_29  and  C_32
REMARK                            x       y       z     vdW  Elec       q    Type
REMARK                         _______ _______ _______ _____ _____    ______ ____
ROOT
ATOM      1  N   UNL     1       6.407  13.589   9.136  0.00  0.00    +0.000 N 
ATOM      2  C   UNL     1       5.890  13.591   7.896  0.00  0.00    +0.000 A 
ATOM      3  C   UNL     1       6.834  13.211   6.998  0.00  0.00    +0.000 A 
ATOM      4  C   UNL     1       6.524  13.129   5.649  0.00  0.00    +0.000 A 
ATOM      5  N   UNL     1       5.247  13.447   5.280  0.00  0.00    +0.000 NA
ATOM      6  C   UNL     1       4.300  13.834   6.200  0.00  0.00    +0.000 A 
ATOM      7  N   UNL     1       4.625  13.907   7.530  0.00  0.00    +0.000 NA
ATOM      8  N   UNL     1       7.985  12.955   7.643  0.00  0.00    +0.000 N 
ATOM      9  C   UNL     1       7.693  13.193   8.947  0.00  0.00    +0.000 A 
ATOM     10  O   UNL     1       8.530  13.067   9.882  0.00  0.00    +0.000 OA
ATOM     11  C   UNL     1       9.252  12.520   7.076  0.00  0.00    +0.000 C 
ENDROOT
BRANCH   6  12
ATOM     12  C   UNL     1       2.933  14.168   5.756  0.00  0.00    +0.000 A 
ATOM     13  C   UNL     1       2.487  15.498   5.771  0.00  0.00    +0.000 A 
ATOM     14  C   UNL     1       1.193  15.816   5.349  0.00  0.00    +0.000 A 
ATOM     15  C   UNL     1       0.333  14.805   4.910  0.00  0.00    +0.000 A 
ATOM     16  C   UNL     1       0.768  13.478   4.893  0.00  0.00    +0.000 A 
ATOM     17  C   UNL     1       2.063  13.161   5.314  0.00  0.00    +0.000 A 
ENDBRANCH   6  12
BRANCH   1  18
ATOM     18  C   UNL     1       5.723  13.914  10.383  0.00  0.00    +0.000 C 
BRANCH  18  20
ATOM     19  N   UNL     1       4.716  11.769  11.338  0.00  0.00    +0.000 N 
ATOM     20  C   UNL     1       4.555  13.002  10.613  0.00  0.00    +0.000 C 
ATOM     21  O   UNL     1       3.432  13.304  10.125  0.00  0.00    +0.000 OA
BRANCH  19  23
ATOM     22  C   UNL     1       2.945  11.298  12.952  0.00  0.00    +0.000 C 
ATOM     23  C   UNL     1       3.567  10.917  11.621  0.00  0.00    +0.000 C 
ENDBRANCH  19  23
BRANCH  19  24
ATOM     24  C   UNL     1       6.020  11.362  11.855  0.00  0.00    +0.000 C 
BRANCH  24  25
ATOM     25  C   UNL     1       6.448  10.057  11.261  0.00  0.00    +0.000 A 
ATOM     26  C   UNL     1       6.307   8.845  11.963  0.00  0.00    +0.000 A 
ATOM     27 CL   UNL     1       5.580   8.782  13.562  0.00  0.00    +0.000 Cl
ATOM     28  C   UNL     1       6.732   7.648  11.376  0.00  0.00    +0.000 A 
ATOM     29  C   UNL     1       7.298   7.651  10.098  0.00  0.00    +0.000 A 
ATOM     30  C   UNL     1       7.435   8.852   9.399  0.00  0.00    +0.000 A 
ATOM     31 CL   UNL     1       8.148   8.861   7.801  0.00  0.00    +0.000 Cl
ATOM     32  C   UNL     1       7.012  10.050   9.979  0.00  0.00    +0.000 A 
ENDBRANCH  24  25
ENDBRANCH  19  24
ENDBRANCH  18  20
ENDBRANCH   1  18
TORSDOF 6
ENDMDL
MODEL 2
REMARK VINA RESULT:    -6.070      3.682      7.299
REMARK INTER + INTRA:          -9.148
REMARK INTER:                  -7.523
REMARK INTRA:                  -1.625
REMARK UNBOUND:                -0.949
REMARK  Name = emap3_Bn-3,4diCl_Me
REMARK  8 active torsions:
REMARK  status: ('A' for Active; 'I' for Inactive)
REMARK    1  A    between atoms: C_1  and  C_2
REMARK    2  A    between atoms: C_2  and  N_3
REMARK    3  A    between atoms: N_3  and  C_4
REMARK    4  A    between atoms: C_4  and  C_5
REMARK    5  A    between atoms: C_13  and  C_15
REMARK    6  A    between atoms: C_15  and  N_16
REMARK    7  A    between atoms: C_21  and  C_23
REMARK    8  A    between atoms: N_29  and  C_32
REMARK                            x       y       z     vdW  Elec       q    Type
REMARK                         _______ _______ _______ _____ _____    ______ ____
ROOT
ATOM      1  N   UNL     1       8.548  12.786   3.583  0.00  0.00    +0.000 N 
ATOM      2  C   UNL     1       9.063  12.085   4.606  0.00  0.00    +0.000 A 
ATOM      3  C   UNL     1      10.391  11.882   4.410  0.00  0.00    +0.000 A 
ATOM      4  C   UNL     1      11.138  11.186   5.349  0.00  0.00    +0.000 A 
ATOM      5  N   UNL     1      10.481  10.725   6.454  0.00  0.00    +0.000 NA
ATOM      6  C   UNL     1       9.134  10.935   6.641  0.00  0.00    +0.000 A 
ATOM      7  N   UNL     1       8.413  11.627   5.702  0.00  0.00    +0.000 NA
ATOM      8  N   UNL     1      10.761  12.450   3.250  0.00  0.00    +0.000 N 
ATOM      9  C   UNL     1       9.616  12.995   2.768  0.00  0.00    +0.000 A 
ATOM     10  O   UNL     1       9.549  13.623   1.677  0.00  0.00    +0.000 OA
ATOM     11  C   UNL     1      12.086  12.476   2.649  0.00  0.00    +0.000 C 
ENDROOT
BRANCH   6  12
ATOM     12  C   UNL     1       8.467  10.419   7.851  0.00  0.00    +0.000 A 
ATOM     13  C   UNL     1       8.159   9.055   7.964  0.00  0.00    +0.000 A 
ATOM     14  C   UNL     1       7.528   8.564   9.111  0.00  0.00    +0.000 A 
ATOM     15  C   UNL     1       7.199   9.435  10.154  0.00  0.00    +0.000 A 
ATOM     16  C   UNL     1       7.501  10.794  10.049  0.00  0.00    +0.000 A 
ATOM     17  C   UNL     1       8.132  11.285   8.903  0.00  0.00    +0.000 A 
ENDBRANCH   6  12
BRANCH   1  18
ATOM     18  C   UNL     1       7.169  13.231   3.416  0.00  0.00    +0.000 C 
BRANCH  18  20
ATOM     19  N   UNL     1       6.420  14.787   5.299  0.00  0.00    +0.000 N 
ATOM     20  C   UNL     1       6.972  14.605   3.982  0.00  0.00    +0.000 C 
ATOM     21  O   UNL     1       7.253  15.610   3.273  0.00  0.00    +0.000 OA
BRANCH  19  23
ATOM     22  C   UNL     1       7.386  16.353   6.905  0.00  0.00    +0.000 C 
ATOM     23  C   UNL     1       6.295  16.121   5.876  0.00  0.00    +0.000 C 
ENDBRANCH  19  23
BRANCH  19  24
ATOM     24  C   UNL     1       6.022  13.642   6.115  0.00  0.00    +0.000 C 
BRANCH  24  25
ATOM     25  C   UNL     1       4.610  13.788   6.588  0.00  0.00    +0.000 A 
ATOM     26  C   UNL     1       4.305  14.005   7.945  0.00  0.00    +0.000 A 
ATOM     27 CL   UNL     1       5.564  14.162   9.162  0.00  0.00    +0.000 Cl
ATOM     28  C   UNL     1       2.970  14.123   8.348  0.00  0.00    +0.000 A 
ATOM     29  C   UNL     1       1.939  14.024   7.409  0.00  0.00    +0.000 A 
ATOM     30  C   UNL     1       2.240  13.812   6.062  0.00  0.00    +0.000 A 
ATOM     31 CL   UNL     1       0.952  13.682   4.884  0.00  0.00    +0.000 Cl
ATOM     32  C   UNL     1       3.570  13.695   5.654  0.00  0.00    +0.000 A 
ENDBRANCH  24  25
ENDBRANCH  19  24
ENDBRANCH  18  20
ENDBRANCH   1  18
TORSDOF 6
ENDMDL
MODEL 3
REMARK VINA RESULT:    -5.951      2.351      3.700
REMARK INTER + INTRA:          -8.987
REMARK INTER:                  -7.267
REMARK INTRA:                  -1.720
REMARK UNBOUND:                -0.949
REMARK  Name = emap3_Bn-3,4diCl_Me
REMARK  8 active torsions:
REMARK  status: ('A' for Active; 'I' for Inactive)
REMARK    1  A    between atoms: C_1  and  C_2
REMARK    2  A    between atoms: C_2  and  N_3
REMARK    3  A    between atoms: N_3  and  C_4
REMARK    4  A    between atoms: C_4  and  C_5
REMARK    5  A    between atoms: C_13  and  C_15
REMARK    6  A    between atoms: C_15  and  N_16
REMARK    7  A    between atoms: C_21  and  C_23
REMARK    8  A    between atoms: N_29  and  C_32
REMARK                            x       y       z     vdW  Elec       q    Type
REMARK                         _______ _______ _______ _____ _____    ______ ____
ROOT
ATOM      1  N   UNL     1       8.858  11.823   7.067  0.00  0.00    +0.000 N 
ATOM      2  C   UNL     1       8.011  12.400   6.198  0.00  0.00    +0.000 A 
ATOM      3  C   UNL     1       8.608  12.538   4.987  0.00  0.00    +0.000 A 
ATOM      4  C   UNL     1       7.917  13.102   3.926  0.00  0.00    +0.000 A 
ATOM      5  N   UNL     1       6.632  13.504   4.160  0.00  0.00    +0.000 NA
ATOM      6  C   UNL     1       6.038  13.361   5.393  0.00  0.00    +0.000 A 
ATOM      7  N   UNL     1       6.738  12.799   6.429  0.00  0.00    +0.000 NA
ATOM      8  N   UNL     1       9.860  12.052   5.050  0.00  0.00    +0.000 N 
ATOM      9  C   UNL     1       9.983  11.622   6.331  0.00  0.00    +0.000 A 
ATOM     10  O   UNL     1      11.033  11.096   6.791  0.00  0.00    +0.000 OA
ATOM     11  C   UNL     1      10.853  11.998   3.989  0.00  0.00    +0.000 C 
ENDROOT
BRANCH   6  12
ATOM     12  C   UNL     1       4.647  13.810   5.600  0.00  0.00    +0.000 A 
ATOM     13  C   UNL     1       4.380  15.120   6.025  0.00  0.00    +0.000 A 
ATOM     14  C   UNL     1       3.064  15.546   6.220  0.00  0.00    +0.000 A 
ATOM     15  C   UNL     1       2.003  14.665   5.991  0.00  0.00    +0.000 A 
ATOM     16  C   UNL     1       2.259  13.359   5.568  0.00  0.00    +0.000 A 
ATOM     17  C   UNL     1       3.576  12.933   5.373  0.00  0.00    +0.000 A 
ENDBRANCH   6  12
BRANCH   1  18
ATOM     18  C   UNL     1       8.603  11.479   8.461  0.00  0.00    +0.000 C 
BRANCH  18  20
ATOM     19  N   UNL     1       7.412   9.660   9.804  0.00  0.00    +0.000 N 
ATOM     20  C   UNL     1       8.035  10.096   8.582  0.00  0.00    +0.000 C 
ATOM     21  O   UNL     1       8.149   9.297   7.612  0.00  0.00    +0.000 OA
BRANCH  19  23
ATOM     22  C   UNL     1       7.727   7.378  10.613  0.00  0.00    +0.000 C 
ATOM     23  C   UNL     1       6.799   8.340   9.896  0.00  0.00    +0.000 C 
ENDBRANCH  19  23
BRANCH  19  24
ATOM     24  C   UNL     1       7.328  10.543  10.964  0.00  0.00    +0.000 C 
BRANCH  24  25
ATOM     25  C   UNL     1       5.923  11.011  11.180  0.00  0.00    +0.000 A 
ATOM     26  C   UNL     1       5.090  10.423  12.150  0.00  0.00    +0.000 A 
ATOM     27 CL   UNL     1       5.659   9.132  13.198  0.00  0.00    +0.000 Cl
ATOM     28  C   UNL     1       3.778  10.883  12.310  0.00  0.00    +0.000 A 
ATOM     29  C   UNL     1       3.292  11.921  11.511  0.00  0.00    +0.000 A 
ATOM     30  C   UNL     1       4.119  12.509  10.551  0.00  0.00    +0.000 A 
ATOM     31 CL   UNL     1       3.512  13.805   9.544  0.00  0.00    +0.000 Cl
ATOM     32  C   UNL     1       5.429  12.055  10.387  0.00  0.00    +0.000 A 
ENDBRANCH  24  25
ENDBRANCH  19  24
ENDBRANCH  18  20
ENDBRANCH   1  18
TORSDOF 6
ENDMDL
