MODEL 1
REMARK VINA RESULT:    -5.699      0.000      0.000
REMARK INTER + INTRA:          -9.924
REMARK INTER:                  -7.698
REMARK INTRA:                  -2.226
REMARK UNBOUND:                -2.226
REMARK  Name = emap2_Bn-4F_Me
REMARK  8 active torsions:
REMARK  status: ('A' for Active; 'I' for Inactive)
REMARK    1  A    between atoms: C_1  and  C_2
REMARK    2  A    between atoms: C_2  and  N_3
REMARK    3  A    between atoms: N_3  and  C_4
REMARK    4  A    between atoms: C_4  and  C_5
REMARK    5  A    between atoms: C_12  and  C_14
REMARK    6  A    between atoms: C_14  and  N_15
REMARK    7  A    between atoms: C_20  and  C_22
REMARK    8  A    between atoms: N_28  and  C_31
REMARK                            x       y       z     vdW  Elec       q    Type
REMARK                         _______ _______ _______ _____ _____    ______ ____
ROOT
ATOM      1  N   UNL     1       7.031  13.657   8.745  0.00  0.00    +0.000 N 
ATOM      2  C   UNL     1       6.318  13.580   7.545  0.00  0.00    +0.000 A 
ATOM      3  C   UNL     1       7.198  13.129   6.581  0.00  0.00    +0.000 A 
ATOM      4  C   UNL     1       6.702  12.935   5.333  0.00  0.00    +0.000 A 
ATOM      5  N   UNL     1       5.407  13.192   5.061  0.00  0.00    +0.000 NA
ATOM      6  C   UNL     1       4.618  13.657   6.073  0.00  0.00    +0.000 A 
ATOM      7  N   UNL     1       5.026  13.854   7.348  0.00  0.00    +0.000 NA
ATOM      8  N   UNL     1       8.460  12.959   7.152  0.00  0.00    +0.000 N 
ATOM      9  C   UNL     1       8.373  13.316   8.513  0.00  0.00    +0.000 A 
ATOM     10  O   UNL     1       9.280  13.304   9.329  0.00  0.00    +0.000 OA
ATOM     11  C   UNL     1       9.647  12.507   6.491  0.00  0.00    +0.000 C 
ENDROOT
BRANCH   6  12
ATOM     12  C   UNL     1       3.213  13.970   5.729  0.00  0.00    +0.000 A 
ATOM     13  C   UNL     1       2.316  12.954   5.340  0.00  0.00    +0.000 A 
ATOM     14  C   UNL     1       0.989  13.235   4.999  0.00  0.00    +0.000 A 
ATOM     15  C   UNL     1       0.528  14.545   5.037  0.00  0.00    +0.000 A 
ATOM     16  C   UNL     1       1.388  15.571   5.418  0.00  0.00    +0.000 A 
ATOM     17  C   UNL     1       2.715  15.287   5.760  0.00  0.00    +0.000 A 
ENDBRANCH   6  12
BRANCH   1  18
ATOM     18  C   UNL     1       6.502  14.151   9.986  0.00  0.00    +0.000 C 
BRANCH  18  20
ATOM     19  N   UNL     1       4.667  13.278  11.458  0.00  0.00    +0.000 N 
ATOM     20  C   UNL     1       5.896  13.021  10.834  0.00  0.00    +0.000 C 
ATOM     21  O   UNL     1       6.487  11.945  10.939  0.00  0.00    +0.000 OA
BRANCH  19  23
ATOM     22  C   UNL     1       3.291  11.097  11.697  0.00  0.00    +0.000 C 
ATOM     23  C   UNL     1       3.993  12.292  12.324  0.00  0.00    +0.000 C 
ENDBRANCH  19  23
BRANCH  19  24
ATOM     24  C   UNL     1       3.988  14.578  11.358  0.00  0.00    +0.000 C 
BRANCH  24  25
ATOM     25  C   UNL     1       2.690  14.591  10.571  0.00  0.00    +0.000 A 
ATOM     26  C   UNL     1       2.468  13.803   9.432  0.00  0.00    +0.000 A 
ATOM     27  C   UNL     1       1.275  13.912   8.709  0.00  0.00    +0.000 A 
ATOM     28  C   UNL     1       0.294  14.799   9.130  0.00  0.00    +0.000 A 
ATOM     29  F   UNL     1      -0.832  14.925   8.416  0.00  0.00    +0.000 F 
ATOM     30  C   UNL     1       0.470  15.566  10.272  0.00  0.00    +0.000 A 
ATOM     31  C   UNL     1       1.662  15.460  10.995  0.00  0.00    +0.000 A 
ENDBRANCH  24  25
ENDBRANCH  19  24
ENDBRANCH  18  20
ENDBRANCH   1  18
TORSDOF 6
ENDMDL
MODEL 2
REMARK VINA RESULT:    -5.457      3.321      6.207
REMARK INTER + INTRA:          -9.597
REMARK INTER:                  -8.501
REMARK INTRA:                  -1.096
REMARK UNBOUND:                -2.226
REMARK  Name = emap2_Bn-4F_Me
REMARK  8 active torsions:
REMARK  status: ('A' for Active; 'I' for Inactive)
REMARK    1  A    between atoms: C_1  and  C_2
REMARK    2  A    between atoms: C_2  and  N_3
REMARK    3  A    between atoms: N_3  and  C_4
REMARK    4  A    between atoms: C_4  and  C_5
REMARK    5  A    between atoms: C_12  and  C_14
REMARK    6  A    between atoms: C_14  and  N_15
REMARK    7  A    between atoms: C_20  and  C_22
REMARK    8  A    between atoms: N_28  and  C_31
REMARK                            x       y       z     vdW  Elec       q    Type
REMARK                         _______ _______ _______ _____ _____    ______ ____
ROOT
ATOM      1  N   UNL     1       8.068  12.331   5.714  0.00  0.00    +0.000 N 
ATOM      2  C   UNL     1       8.687  11.240   6.331  0.00  0.00    +0.000 A 
ATOM      3  C   UNL     1       9.916  11.078   5.721  0.00  0.00    +0.000 A 
ATOM      4  C   UNL     1      10.717  10.092   6.199  0.00  0.00    +0.000 A 
ATOM      5  N   UNL     1      10.307   9.305   7.214  0.00  0.00    +0.000 NA
ATOM      6  C   UNL     1       9.066   9.527   7.738  0.00  0.00    +0.000 A 
ATOM      7  N   UNL     1       8.217  10.501   7.338  0.00  0.00    +0.000 NA
ATOM      8  N   UNL     1      10.057  12.026   4.708  0.00  0.00    +0.000 N 
ATOM      9  C   UNL     1       8.884  12.806   4.675  0.00  0.00    +0.000 A 
ATOM     10  O   UNL     1       8.641  13.727   3.913  0.00  0.00    +0.000 OA
ATOM     11  C   UNL     1      11.184  12.193   3.841  0.00  0.00    +0.000 C 
ENDROOT
BRANCH   6  12
ATOM     12  C   UNL     1       8.632   8.616   8.821  0.00  0.00    +0.000 A 
ATOM     13  C   UNL     1       9.514   7.659   9.364  0.00  0.00    +0.000 A 
ATOM     14  C   UNL     1       9.116   6.783  10.379  0.00  0.00    +0.000 A 
ATOM     15  C   UNL     1       7.819   6.844  10.874  0.00  0.00    +0.000 A 
ATOM     16  C   UNL     1       6.924   7.777  10.360  0.00  0.00    +0.000 A 
ATOM     17  C   UNL     1       7.326   8.654   9.346  0.00  0.00    +0.000 A 
ENDBRANCH   6  12
BRANCH   1  18
ATOM     18  C   UNL     1       6.738  12.794   6.005  0.00  0.00    +0.000 C 
BRANCH  18  20
ATOM     19  N   UNL     1       5.682  14.905   6.855  0.00  0.00    +0.000 N 
ATOM     20  C   UNL     1       6.754  14.007   6.949  0.00  0.00    +0.000 C 
ATOM     21  O   UNL     1       7.682  14.155   7.747  0.00  0.00    +0.000 OA
BRANCH  19  23
ATOM     22  C   UNL     1       4.791  17.316   7.174  0.00  0.00    +0.000 C 
ATOM     23  C   UNL     1       5.591  16.125   7.679  0.00  0.00    +0.000 C 
ENDBRANCH  19  23
BRANCH  19  24
ATOM     24  C   UNL     1       4.599  14.741   5.873  0.00  0.00    +0.000 C 
BRANCH  24  25
ATOM     25  C   UNL     1       3.391  13.950   6.341  0.00  0.00    +0.000 A 
ATOM     26  C   UNL     1       3.016  13.838   7.688  0.00  0.00    +0.000 A 
ATOM     27  C   UNL     1       1.933  13.037   8.063  0.00  0.00    +0.000 A 
ATOM     28  C   UNL     1       1.212  12.355   7.093  0.00  0.00    +0.000 A 
ATOM     29  F   UNL     1       0.196  11.562   7.458  0.00  0.00    +0.000 F 
ATOM     30  C   UNL     1       1.538  12.475   5.749  0.00  0.00    +0.000 A 
ATOM     31  C   UNL     1       2.621  13.274   5.373  0.00  0.00    +0.000 A 
ENDBRANCH  24  25
ENDBRANCH  19  24
ENDBRANCH  18  20
ENDBRANCH   1  18
TORSDOF 6
ENDMDL
MODEL 3
REMARK VINA RESULT:    -5.231      1.376      2.387
REMARK INTER + INTRA:          -9.291
REMARK INTER:                  -6.839
REMARK INTRA:                  -2.452
REMARK UNBOUND:                -2.226
REMARK  Name = emap2_Bn-4F_Me
REMARK  8 active torsions:
REMARK  status: ('A' for Active; 'I' for Inactive)
REMARK    1  A    between atoms: C_1  and  C_2
REMARK    2  A    between atoms: C_2  and  N_3
REMARK    3  A    between atoms: N_3  and  C_4
REMARK    4  A    between atoms: C_4  and  C_5
REMARK    5  A    between atoms: C_12  and  C_14
REMARK    6  A    between atoms: C_14  and  N_15
REMARK    7  A    between atoms: C_20  and  C_22
REMARK    8  A    between atoms: N_28  and  C_31
REMARK                            x       y       z     vdW  Elec       q    Type
REMARK                         _______ _______ _______ _____ _____    ______ ____
ROOT
ATOM      1  N   UNL     1       6.846  13.691   8.846  0.00  0.00    +0.000 N 
ATOM      2  C   UNL     1       6.165  13.596   7.628  0.00  0.00    +0.000 A 
ATOM      3  C   UNL     1       7.064  13.106   6.702  0.00  0.00    +0.000 A 
ATOM      4  C   UNL     1       6.599  12.888   5.446  0.00  0.00    +0.000 A 
ATOM      5  N   UNL     1       5.317  13.161   5.130  0.00  0.00    +0.000 NA
ATOM      6  C   UNL     1       4.509  13.665   6.108  0.00  0.00    +0.000 A 
ATOM      7  N   UNL     1       4.885  13.888   7.389  0.00  0.00    +0.000 NA
ATOM      8  N   UNL     1       8.306  12.929   7.312  0.00  0.00    +0.000 N 
ATOM      9  C   UNL     1       8.188  13.322   8.661  0.00  0.00    +0.000 A 
ATOM     10  O   UNL     1       9.071  13.315   9.503  0.00  0.00    +0.000 OA
ATOM     11  C   UNL     1       9.502  12.439   6.697  0.00  0.00    +0.000 C 
ENDROOT
BRANCH   6  12
ATOM     12  C   UNL     1       3.120  13.994   5.716  0.00  0.00    +0.000 A 
ATOM     13  C   UNL     1       2.646  15.322   5.762  0.00  0.00    +0.000 A 
ATOM     14  C   UNL     1       1.333  15.647   5.406  0.00  0.00    +0.000 A 
ATOM     15  C   UNL     1       0.460  14.647   4.997  0.00  0.00    +0.000 A 
ATOM     16  C   UNL     1       0.897  13.327   4.940  0.00  0.00    +0.000 A 
ATOM     17  C   UNL     1       2.212  13.004   5.294  0.00  0.00    +0.000 A 
ENDBRANCH   6  12
BRANCH   1  18
ATOM     18  C   UNL     1       6.291  14.226  10.059  0.00  0.00    +0.000 C 
BRANCH  18  20
ATOM     19  N   UNL     1       4.857  16.241  10.483  0.00  0.00    +0.000 N 
ATOM     20  C   UNL     1       6.056  15.742   9.954  0.00  0.00    +0.000 C 
ATOM     21  O   UNL     1       6.905  16.462   9.427  0.00  0.00    +0.000 OA
BRANCH  19  23
ATOM     22  C   UNL     1       4.074  18.395  11.689  0.00  0.00    +0.000 C 
ATOM     23  C   UNL     1       4.494  17.670  10.420  0.00  0.00    +0.000 C 
ENDBRANCH  19  23
BRANCH  19  24
ATOM     24  C   UNL     1       3.832  15.369  11.076  0.00  0.00    +0.000 C 
BRANCH  24  25
ATOM     25  C   UNL     1       2.620  15.083  10.208  0.00  0.00    +0.000 A 
ATOM     26  C   UNL     1       1.554  15.981  10.048  0.00  0.00    +0.000 A 
ATOM     27  C   UNL     1       0.432  15.630   9.291  0.00  0.00    +0.000 A 
ATOM     28  C   UNL     1       0.376  14.386   8.678  0.00  0.00    +0.000 A 
ATOM     29  F   UNL     1      -0.714  14.041   7.982  0.00  0.00    +0.000 F 
ATOM     30  C   UNL     1       1.430  13.491   8.789  0.00  0.00    +0.000 A 
ATOM     31  C   UNL     1       2.551  13.839   9.547  0.00  0.00    +0.000 A 
ENDBRANCH  24  25
ENDBRANCH  19  24
ENDBRANCH  18  20
ENDBRANCH   1  18
TORSDOF 6
ENDMDL
