MODEL 1
REMARK VINA RESULT:    -5.078      0.000      0.000
REMARK INTER + INTRA:         -10.687
REMARK INTER:                  -7.453
REMARK INTRA:                  -3.234
REMARK UNBOUND:                -3.234
REMARK  Name = emap_Bn-4OCF3_Me
REMARK  10 active torsions:
REMARK  status: ('A' for Active; 'I' for Inactive)
REMARK    1  A    between atoms: C_1  and  C_2
REMARK    2  A    between atoms: C_2  and  N_3
REMARK    3  A    between atoms: N_3  and  C_4
REMARK    4  A    between atoms: C_4  and  C_5
REMARK    5  A    between atoms: C_8  and  O_9
REMARK    6  A    between atoms: O_9  and  C_10
REMARK    7  A    between atoms: C_16  and  C_18
REMARK    8  A    between atoms: C_18  and  N_19
REMARK    9  A    between atoms: C_24  and  C_26
REMARK   10  A    between atoms: N_32  and  C_35
REMARK                            x       y       z     vdW  Elec       q    Type
REMARK                         _______ _______ _______ _____ _____    ______ ____
ROOT
ATOM      1  C   UNL     1       7.178  13.856   9.023  0.00  0.00    +0.000 C 
ENDROOT
BRANCH   1   2
ATOM      2  N   UNL     1       6.567  12.790   9.786  0.00  0.00    +0.000 N 
ATOM      3  C   UNL     1       5.255  12.820  10.279  0.00  0.00    +0.000 A 
ATOM      4  C   UNL     1       5.061  11.661  11.004  0.00  0.00    +0.000 A 
ATOM      5  C   UNL     1       3.848  11.488  11.588  0.00  0.00    +0.000 A 
ATOM      6  N   UNL     1       2.878  12.412  11.443  0.00  0.00    +0.000 NA
ATOM      7  C   UNL     1       3.156  13.518  10.692  0.00  0.00    +0.000 A 
ATOM      8  N   UNL     1       4.340  13.765  10.089  0.00  0.00    +0.000 NA
ATOM      9  N   UNL     1       6.219  10.889  10.953  0.00  0.00    +0.000 N 
ATOM     10  C   UNL     1       7.165  11.574  10.167  0.00  0.00    +0.000 A 
ATOM     11  O   UNL     1       8.286  11.178   9.887  0.00  0.00    +0.000 OA
ATOM     12  C   UNL     1       6.439   9.632  11.607  0.00  0.00    +0.000 C 
BRANCH   7  13
ATOM     13  C   UNL     1       2.069  14.505  10.526  0.00  0.00    +0.000 A 
ATOM     14  C   UNL     1       2.085  15.439   9.471  0.00  0.00    +0.000 A 
ATOM     15  C   UNL     1       1.059  16.373   9.301  0.00  0.00    +0.000 A 
ATOM     16  C   UNL     1      -0.010  16.398  10.190  0.00  0.00    +0.000 A 
ATOM     17  C   UNL     1      -0.052  15.492  11.246  0.00  0.00    +0.000 A 
ATOM     18  C   UNL     1       0.975  14.556  11.410  0.00  0.00    +0.000 A 
ENDBRANCH   7  13
ENDBRANCH   1   2
BRANCH   1  20
ATOM     19  N   UNL     1       5.987  15.167   7.199  0.00  0.00    +0.000 N 
ATOM     20  C   UNL     1       6.642  13.991   7.582  0.00  0.00    +0.000 C 
ATOM     21  O   UNL     1       6.783  13.054   6.794  0.00  0.00    +0.000 OA
BRANCH  19  23
ATOM     22  C   UNL     1       5.602  17.615   7.556  0.00  0.00    +0.000 C 
ATOM     23  C   UNL     1       5.584  16.215   8.137  0.00  0.00    +0.000 C 
ENDBRANCH  19  23
BRANCH  19  24
ATOM     24  C   UNL     1       5.417  15.233   5.850  0.00  0.00    +0.000 C 
BRANCH  24  25
ATOM     25  C   UNL     1       3.972  14.801   5.707  0.00  0.00    +0.000 A 
ATOM     26  C   UNL     1       3.640  13.442   5.623  0.00  0.00    +0.000 A 
ATOM     27  C   UNL     1       2.302  13.023   5.683  0.00  0.00    +0.000 A 
ATOM     28  C   UNL     1       1.279  13.953   5.850  0.00  0.00    +0.000 A 
ATOM     29  C   UNL     1       1.593  15.312   5.834  0.00  0.00    +0.000 A 
ATOM     30  C   UNL     1       2.927  15.734   5.770  0.00  0.00    +0.000 A 
BRANCH  28  31
ATOM     31  O   UNL     1      -0.045  13.656   5.977  0.00  0.00    +0.000 OA
BRANCH  31  32
ATOM     32  C   UNL     1      -0.567  13.379   7.273  0.00  0.00    +0.000 C 
ATOM     33  F   UNL     1       0.361  13.075   8.204  0.00  0.00    +0.000 F 
ATOM     34  F   UNL     1      -1.246  14.466   7.709  0.00  0.00    +0.000 F 
ATOM     35  F   UNL     1      -1.440  12.352   7.184  0.00  0.00    +0.000 F 
ENDBRANCH  31  32
ENDBRANCH  28  31
ENDBRANCH  24  25
ENDBRANCH  19  24
ENDBRANCH   1  20
TORSDOF 8
ENDMDL
MODEL 2
REMARK VINA RESULT:    -5.060      2.505      5.169
REMARK INTER + INTRA:         -10.660
REMARK INTER:                  -8.430
REMARK INTRA:                  -2.230
REMARK UNBOUND:                -3.234
REMARK  Name = emap_Bn-4OCF3_Me
REMARK  10 active torsions:
REMARK  status: ('A' for Active; 'I' for Inactive)
REMARK    1  A    between atoms: C_1  and  C_2
REMARK    2  A    between atoms: C_2  and  N_3
REMARK    3  A    between atoms: N_3  and  C_4
REMARK    4  A    between atoms: C_4  and  C_5
REMARK    5  A    between atoms: C_8  and  O_9
REMARK    6  A    between atoms: O_9  and  C_10
REMARK    7  A    between atoms: C_16  and  C_18
REMARK    8  A    between atoms: C_18  and  N_19
REMARK    9  A    between atoms: C_24  and  C_26
REMARK   10  A    between atoms: N_32  and  C_35
REMARK                            x       y       z     vdW  Elec       q    Type
REMARK                         _______ _______ _______ _____ _____    ______ ____
ROOT
ATOM      1  C   UNL     1       6.987  13.348  11.132  0.00  0.00    +0.000 C 
ENDROOT
BRANCH   1   2
ATOM      2  N   UNL     1       7.484  12.029  10.801  0.00  0.00    +0.000 N 
ATOM      3  C   UNL     1       7.676  11.561   9.494  0.00  0.00    +0.000 A 
ATOM      4  C   UNL     1       8.094  10.249   9.584  0.00  0.00    +0.000 A 
ATOM      5  C   UNL     1       8.329   9.588   8.422  0.00  0.00    +0.000 A 
ATOM      6  N   UNL     1       8.172  10.209   7.237  0.00  0.00    +0.000 NA
ATOM      7  C   UNL     1       7.772  11.514   7.246  0.00  0.00    +0.000 A 
ATOM      8  N   UNL     1       7.510  12.234   8.360  0.00  0.00    +0.000 NA
ATOM      9  N   UNL     1       8.196   9.891  10.927  0.00  0.00    +0.000 N 
ATOM     10  C   UNL     1       7.842  11.011  11.704  0.00  0.00    +0.000 A 
ATOM     11  O   UNL     1       7.843  11.066  12.923  0.00  0.00    +0.000 OA
ATOM     12  C   UNL     1       8.562   8.605  11.445  0.00  0.00    +0.000 C 
BRANCH   7  13
ATOM     13  C   UNL     1       7.630  12.181   5.935  0.00  0.00    +0.000 A 
ATOM     14  C   UNL     1       8.551  11.949   4.894  0.00  0.00    +0.000 A 
ATOM     15  C   UNL     1       8.424  12.570   3.648  0.00  0.00    +0.000 A 
ATOM     16  C   UNL     1       7.369  13.445   3.415  0.00  0.00    +0.000 A 
ATOM     17  C   UNL     1       6.445  13.699   4.425  0.00  0.00    +0.000 A 
ATOM     18  C   UNL     1       6.575  13.073   5.669  0.00  0.00    +0.000 A 
ENDBRANCH   7  13
ENDBRANCH   1   2
BRANCH   1  20
ATOM     19  N   UNL     1       4.723  14.410  10.676  0.00  0.00    +0.000 N 
ATOM     20  C   UNL     1       5.458  13.416  11.331  0.00  0.00    +0.000 C 
ATOM     21  O   UNL     1       4.909  12.605  12.079  0.00  0.00    +0.000 OA
BRANCH  19  23
ATOM     22  C   UNL     1       5.457  15.337   8.469  0.00  0.00    +0.000 C 
ATOM     23  C   UNL     1       5.330  15.536   9.966  0.00  0.00    +0.000 C 
ENDBRANCH  19  23
BRANCH  19  24
ATOM     24  C   UNL     1       3.285  14.500  10.949  0.00  0.00    +0.000 C 
BRANCH  24  25
ATOM     25  C   UNL     1       2.358  14.105   9.818  0.00  0.00    +0.000 A 
ATOM     26  C   UNL     1       1.277  14.923   9.464  0.00  0.00    +0.000 A 
ATOM     27  C   UNL     1       0.531  14.667   8.303  0.00  0.00    +0.000 A 
ATOM     28  C   UNL     1       0.867  13.605   7.468  0.00  0.00    +0.000 A 
ATOM     29  C   UNL     1       1.877  12.728   7.866  0.00  0.00    +0.000 A 
ATOM     30  C   UNL     1       2.621  12.978   9.026  0.00  0.00    +0.000 A 
BRANCH  28  31
ATOM     31  O   UNL     1       0.250  13.298   6.292  0.00  0.00    +0.000 OA
BRANCH  31  32
ATOM     32  C   UNL     1       0.919  13.587   5.069  0.00  0.00    +0.000 C 
ATOM     33  F   UNL     1       1.867  14.543   5.153  0.00  0.00    +0.000 F 
ATOM     34  F   UNL     1       1.514  12.456   4.622  0.00  0.00    +0.000 F 
ATOM     35  F   UNL     1       0.005  13.967   4.149  0.00  0.00    +0.000 F 
ENDBRANCH  31  32
ENDBRANCH  28  31
ENDBRANCH  24  25
ENDBRANCH  19  24
ENDBRANCH   1  20
TORSDOF 8
ENDMDL
MODEL 3
REMARK VINA RESULT:    -4.977      2.704      6.173
REMARK INTER + INTRA:         -10.538
REMARK INTER:                  -8.694
REMARK INTRA:                  -1.844
REMARK UNBOUND:                -3.234
REMARK  Name = emap_Bn-4OCF3_Me
REMARK  10 active torsions:
REMARK  status: ('A' for Active; 'I' for Inactive)
REMARK    1  A    between atoms: C_1  and  C_2
REMARK    2  A    between atoms: C_2  and  N_3
REMARK    3  A    between atoms: N_3  and  C_4
REMARK    4  A    between atoms: C_4  and  C_5
REMARK    5  A    between atoms: C_8  and  O_9
REMARK    6  A    between atoms: O_9  and  C_10
REMARK    7  A    between atoms: C_16  and  C_18
REMARK    8  A    between atoms: C_18  and  N_19
REMARK    9  A    between atoms: C_24  and  C_26
REMARK   10  A    between atoms: N_32  and  C_35
REMARK                            x       y       z     vdW  Elec       q    Type
REMARK                         _______ _______ _______ _____ _____    ______ ____
ROOT
ATOM      1  C   UNL     1       7.361  13.155   9.927  0.00  0.00    +0.000 C 
ENDROOT
BRANCH   1   2
ATOM      2  N   UNL     1       7.678  12.528   8.662  0.00  0.00    +0.000 N 
ATOM      3  C   UNL     1       7.927  11.158   8.497  0.00  0.00    +0.000 A 
ATOM      4  C   UNL     1       8.254  10.956   7.172  0.00  0.00    +0.000 A 
ATOM      5  C   UNL     1       8.549   9.687   6.790  0.00  0.00    +0.000 A 
ATOM      6  N   UNL     1       8.504   8.675   7.679  0.00  0.00    +0.000 NA
ATOM      7  C   UNL     1       8.153   8.969   8.965  0.00  0.00    +0.000 A 
ATOM      8  N   UNL     1       7.855  10.206   9.422  0.00  0.00    +0.000 NA
ATOM      9  N   UNL     1       8.187  12.170   6.492  0.00  0.00    +0.000 N 
ATOM     10  C   UNL     1       7.799  13.163   7.412  0.00  0.00    +0.000 A 
ATOM     11  O   UNL     1       7.616  14.343   7.157  0.00  0.00    +0.000 OA
ATOM     12  C   UNL     1       8.491  12.395   5.109  0.00  0.00    +0.000 C 
BRANCH   7  13
ATOM     13  C   UNL     1       8.086   7.839   9.915  0.00  0.00    +0.000 A 
ATOM     14  C   UNL     1       6.913   7.569  10.648  0.00  0.00    +0.000 A 
ATOM     15  C   UNL     1       6.838   6.501  11.546  0.00  0.00    +0.000 A 
ATOM     16  C   UNL     1       7.940   5.675  11.735  0.00  0.00    +0.000 A 
ATOM     17  C   UNL     1       9.115   5.919  11.029  0.00  0.00    +0.000 A 
ATOM     18  C   UNL     1       9.186   6.987  10.130  0.00  0.00    +0.000 A 
ENDBRANCH   7  13
ENDBRANCH   1   2
BRANCH   1  20
ATOM     19  N   UNL     1       5.070  14.191  10.307  0.00  0.00    +0.000 N 
ATOM     20  C   UNL     1       5.875  13.047  10.332  0.00  0.00    +0.000 C 
ATOM     21  O   UNL     1       5.424  11.957  10.690  0.00  0.00    +0.000 OA
BRANCH  19  23
ATOM     22  C   UNL     1       5.240  16.171   8.784  0.00  0.00    +0.000 C 
ATOM     23  C   UNL     1       5.589  15.546  10.120  0.00  0.00    +0.000 C 
ENDBRANCH  19  23
BRANCH  19  24
ATOM     24  C   UNL     1       3.686  14.073  10.776  0.00  0.00    +0.000 C 
BRANCH  24  25
ATOM     25  C   UNL     1       2.619  13.970   9.705  0.00  0.00    +0.000 A 
ATOM     26  C   UNL     1       1.750  15.041   9.460  0.00  0.00    +0.000 A 
ATOM     27  C   UNL     1       0.889  15.031   8.352  0.00  0.00    +0.000 A 
ATOM     28  C   UNL     1       0.900  13.961   7.460  0.00  0.00    +0.000 A 
ATOM     29  C   UNL     1       1.689  12.848   7.752  0.00  0.00    +0.000 A 
ATOM     30  C   UNL     1       2.546  12.854   8.860  0.00  0.00    +0.000 A 
BRANCH  28  31
ATOM     31  O   UNL     1       0.151  13.871   6.325  0.00  0.00    +0.000 OA
BRANCH  31  32
ATOM     32  C   UNL     1       0.790  14.047   5.064  0.00  0.00    +0.000 C 
ATOM     33  F   UNL     1       1.923  14.778   5.100  0.00  0.00    +0.000 F 
ATOM     34  F   UNL     1       1.102  12.829   4.562  0.00  0.00    +0.000 F 
ATOM     35  F   UNL     1      -0.077  14.637   4.213  0.00  0.00    +0.000 F 
ENDBRANCH  31  32
ENDBRANCH  28  31
ENDBRANCH  24  25
ENDBRANCH  19  24
ENDBRANCH   1  20
TORSDOF 8
ENDMDL
