MODEL 1
REMARK VINA RESULT:    -5.801      0.000      0.000
REMARK INTER + INTRA:          -9.405
REMARK INTER:                  -7.836
REMARK INTRA:                  -1.569
REMARK UNBOUND:                -1.569
REMARK  Name = emap2_Bn-3,4diCl_Me
REMARK  8 active torsions:
REMARK  status: ('A' for Active; 'I' for Inactive)
REMARK    1  A    between atoms: C_1  and  C_2
REMARK    2  A    between atoms: C_2  and  N_3
REMARK    3  A    between atoms: N_3  and  C_4
REMARK    4  A    between atoms: C_4  and  C_5
REMARK    5  A    between atoms: C_13  and  C_15
REMARK    6  A    between atoms: C_15  and  N_16
REMARK    7  A    between atoms: C_21  and  C_23
REMARK    8  A    between atoms: N_29  and  C_32
REMARK                            x       y       z     vdW  Elec       q    Type
REMARK                         _______ _______ _______ _____ _____    ______ ____
ROOT
ATOM      1  N   UNL     1       8.529  12.582   3.829  0.00  0.00    +0.000 N 
ATOM      2  C   UNL     1       8.974  11.907   4.970  0.00  0.00    +0.000 A 
ATOM      3  C   UNL     1      10.321  11.667   4.805  0.00  0.00    +0.000 A 
ATOM      4  C   UNL     1      10.956  10.979   5.786  0.00  0.00    +0.000 A 
ATOM      5  N   UNL     1      10.279  10.548   6.871  0.00  0.00    +0.000 NA
ATOM      6  C   UNL     1       8.948  10.833   6.951  0.00  0.00    +0.000 A 
ATOM      7  N   UNL     1       8.244  11.519   6.019  0.00  0.00    +0.000 NA
ATOM      8  N   UNL     1      10.737  12.205   3.583  0.00  0.00    +0.000 N 
ATOM      9  C   UNL     1       9.613  12.788   2.960  0.00  0.00    +0.000 A 
ATOM     10  O   UNL     1       9.595  13.330   1.865  0.00  0.00    +0.000 OA
ATOM     11  C   UNL     1      12.055  12.177   3.031  0.00  0.00    +0.000 C 
ENDROOT
BRANCH   6  12
ATOM     12  C   UNL     1       8.229  10.347   8.150  0.00  0.00    +0.000 A 
ATOM     13  C   UNL     1       7.897   8.986   8.308  0.00  0.00    +0.000 A 
ATOM     14  C   UNL     1       7.228   8.520   9.446  0.00  0.00    +0.000 A 
ATOM     15  C   UNL     1       6.873   9.405  10.456  0.00  0.00    +0.000 A 
ATOM     16  C   UNL     1       7.180  10.754  10.327  0.00  0.00    +0.000 A 
ATOM     17  C   UNL     1       7.846  11.216   9.186  0.00  0.00    +0.000 A 
ENDBRANCH   6  12
BRANCH   1  18
ATOM     18  C   UNL     1       7.193  13.079   3.627  0.00  0.00    +0.000 C 
BRANCH  18  20
ATOM     19  N   UNL     1       6.216  14.753   5.264  0.00  0.00    +0.000 N 
ATOM     20  C   UNL     1       7.073  14.507   4.187  0.00  0.00    +0.000 C 
ATOM     21  O   UNL     1       7.729  15.399   3.646  0.00  0.00    +0.000 OA
BRANCH  19  23
ATOM     22  C   UNL     1       5.102  17.110   5.289  0.00  0.00    +0.000 C 
ATOM     23  C   UNL     1       6.094  16.101   5.856  0.00  0.00    +0.000 C 
ENDBRANCH  19  23
BRANCH  19  24
ATOM     24  C   UNL     1       5.735  13.673   6.144  0.00  0.00    +0.000 C 
BRANCH  24  25
ATOM     25  C   UNL     1       4.276  13.755   6.549  0.00  0.00    +0.000 A 
ATOM     26  C   UNL     1       3.906  13.886   7.903  0.00  0.00    +0.000 A 
ATOM     27 CL   UNL     1       5.071  13.944   9.176  0.00  0.00    +0.000 Cl
ATOM     28  C   UNL     1       2.562  13.975   8.285  0.00  0.00    +0.000 A 
ATOM     29  C   UNL     1       1.559  13.917   7.324  0.00  0.00    +0.000 A 
ATOM     30  C   UNL     1       1.903  13.739   5.987  0.00  0.00    +0.000 A 
ATOM     31 CL   UNL     1       0.662  13.631   4.801  0.00  0.00    +0.000 Cl
ATOM     32  C   UNL     1       3.243  13.649   5.599  0.00  0.00    +0.000 A 
ENDBRANCH  24  25
ENDBRANCH  19  24
ENDBRANCH  18  20
ENDBRANCH   1  18
TORSDOF 6
ENDMDL
MODEL 2
REMARK VINA RESULT:    -5.759      3.605      7.244
REMARK INTER + INTRA:          -9.347
REMARK INTER:                  -8.215
REMARK INTRA:                  -1.132
REMARK UNBOUND:                -1.569
REMARK  Name = emap2_Bn-3,4diCl_Me
REMARK  8 active torsions:
REMARK  status: ('A' for Active; 'I' for Inactive)
REMARK    1  A    between atoms: C_1  and  C_2
REMARK    2  A    between atoms: C_2  and  N_3
REMARK    3  A    between atoms: N_3  and  C_4
REMARK    4  A    between atoms: C_4  and  C_5
REMARK    5  A    between atoms: C_13  and  C_15
REMARK    6  A    between atoms: C_15  and  N_16
REMARK    7  A    between atoms: C_21  and  C_23
REMARK    8  A    between atoms: N_29  and  C_32
REMARK                            x       y       z     vdW  Elec       q    Type
REMARK                         _______ _______ _______ _____ _____    ______ ____
ROOT
ATOM      1  N   UNL     1       6.516  13.762   9.110  0.00  0.00    +0.000 N 
ATOM      2  C   UNL     1       5.895  13.651   7.861  0.00  0.00    +0.000 A 
ATOM      3  C   UNL     1       6.842  13.191   6.972  0.00  0.00    +0.000 A 
ATOM      4  C   UNL     1       6.465  13.048   5.678  0.00  0.00    +0.000 A 
ATOM      5  N   UNL     1       5.209  13.354   5.291  0.00  0.00    +0.000 NA
ATOM      6  C   UNL     1       4.336  13.800   6.241  0.00  0.00    +0.000 A 
ATOM      7  N   UNL     1       4.634  13.964   7.552  0.00  0.00    +0.000 NA
ATOM      8  N   UNL     1       8.048  12.987   7.651  0.00  0.00    +0.000 N 
ATOM      9  C   UNL     1       7.851  13.342   9.002  0.00  0.00    +0.000 A 
ATOM     10  O   UNL     1       8.695  13.316   9.885  0.00  0.00    +0.000 OA
ATOM     11  C   UNL     1       9.280  12.514   7.101  0.00  0.00    +0.000 C 
ENDROOT
BRANCH   6  12
ATOM     12  C   UNL     1       2.966  14.130   5.790  0.00  0.00    +0.000 A 
ATOM     13  C   UNL     1       2.492  15.458   5.785  0.00  0.00    +0.000 A 
ATOM     14  C   UNL     1       1.201  15.776   5.349  0.00  0.00    +0.000 A 
ATOM     15  C   UNL     1       0.350  14.773   4.903  0.00  0.00    +0.000 A 
ATOM     16  C   UNL     1       0.784  13.453   4.902  0.00  0.00    +0.000 A 
ATOM     17  C   UNL     1       2.075  13.139   5.343  0.00  0.00    +0.000 A 
ENDBRANCH   6  12
BRANCH   1  18
ATOM     18  C   UNL     1       5.858  14.146  10.331  0.00  0.00    +0.000 C 
BRANCH  18  20
ATOM     19  N   UNL     1       4.825  11.915  10.958  0.00  0.00    +0.000 N 
ATOM     20  C   UNL     1       4.634  13.246  10.574  0.00  0.00    +0.000 C 
ATOM     21  O   UNL     1       3.514  13.730  10.399  0.00  0.00    +0.000 OA
BRANCH  19  23
ATOM     22  C   UNL     1       2.977  11.061  12.586  0.00  0.00    +0.000 C 
ATOM     23  C   UNL     1       3.680  11.023  11.235  0.00  0.00    +0.000 C 
ENDBRANCH  19  23
BRANCH  19  24
ATOM     24  C   UNL     1       6.098  11.441  11.530  0.00  0.00    +0.000 C 
BRANCH  24  25
ATOM     25  C   UNL     1       6.624  10.134  10.969  0.00  0.00    +0.000 A 
ATOM     26  C   UNL     1       6.532   8.938  11.710  0.00  0.00    +0.000 A 
ATOM     27 CL   UNL     1       5.839   8.883  13.291  0.00  0.00    +0.000 Cl
ATOM     28  C   UNL     1       7.004   7.725  11.195  0.00  0.00    +0.000 A 
ATOM     29  C   UNL     1       7.594   7.684   9.936  0.00  0.00    +0.000 A 
ATOM     30  C   UNL     1       7.739   8.863   9.211  0.00  0.00    +0.000 A 
ATOM     31 CL   UNL     1       8.501   8.820   7.670  0.00  0.00    +0.000 Cl
ATOM     32  C   UNL     1       7.269  10.078   9.720  0.00  0.00    +0.000 A 
ENDBRANCH  24  25
ENDBRANCH  19  24
ENDBRANCH  18  20
ENDBRANCH   1  18
TORSDOF 6
ENDMDL
MODEL 3
REMARK VINA RESULT:    -5.619      3.337      5.926
REMARK INTER + INTRA:          -9.158
REMARK INTER:                  -6.619
REMARK INTRA:                  -2.540
REMARK UNBOUND:                -1.569
REMARK  Name = emap2_Bn-3,4diCl_Me
REMARK  8 active torsions:
REMARK  status: ('A' for Active; 'I' for Inactive)
REMARK    1  A    between atoms: C_1  and  C_2
REMARK    2  A    between atoms: C_2  and  N_3
REMARK    3  A    between atoms: N_3  and  C_4
REMARK    4  A    between atoms: C_4  and  C_5
REMARK    5  A    between atoms: C_13  and  C_15
REMARK    6  A    between atoms: C_15  and  N_16
REMARK    7  A    between atoms: C_21  and  C_23
REMARK    8  A    between atoms: N_29  and  C_32
REMARK                            x       y       z     vdW  Elec       q    Type
REMARK                         _______ _______ _______ _____ _____    ______ ____
ROOT
ATOM      1  N   UNL     1       6.746  13.958   8.774  0.00  0.00    +0.000 N 
ATOM      2  C   UNL     1       6.019  13.734   7.599  0.00  0.00    +0.000 A 
ATOM      3  C   UNL     1       6.860  13.098   6.712  0.00  0.00    +0.000 A 
ATOM      4  C   UNL     1       6.370  12.819   5.479  0.00  0.00    +0.000 A 
ATOM      5  N   UNL     1       5.107  13.161   5.149  0.00  0.00    +0.000 NA
ATOM      6  C   UNL     1       4.344  13.785   6.093  0.00  0.00    +0.000 A 
ATOM      7  N   UNL     1       4.758  14.093   7.345  0.00  0.00    +0.000 NA
ATOM      8  N   UNL     1       8.103  12.898   7.321  0.00  0.00    +0.000 N 
ATOM      9  C   UNL     1       8.040  13.434   8.624  0.00  0.00    +0.000 A 
ATOM     10  O   UNL     1       8.951  13.461   9.438  0.00  0.00    +0.000 OA
ATOM     11  C   UNL     1       9.255  12.273   6.748  0.00  0.00    +0.000 C 
ENDROOT
BRANCH   6  12
ATOM     12  C   UNL     1       2.964  14.152   5.704  0.00  0.00    +0.000 A 
ATOM     13  C   UNL     1       2.536  15.495   5.685  0.00  0.00    +0.000 A 
ATOM     14  C   UNL     1       1.236  15.847   5.307  0.00  0.00    +0.000 A 
ATOM     15  C   UNL     1       0.328  14.863   4.937  0.00  0.00    +0.000 A 
ATOM     16  C   UNL     1       0.716  13.529   4.952  0.00  0.00    +0.000 A 
ATOM     17  C   UNL     1       2.017  13.181   5.335  0.00  0.00    +0.000 A 
ENDBRANCH   6  12
BRANCH   1  18
ATOM     18  C   UNL     1       6.215  14.539   9.979  0.00  0.00    +0.000 C 
BRANCH  18  20
ATOM     19  N   UNL     1       4.703  16.576   9.952  0.00  0.00    +0.000 N 
ATOM     20  C   UNL     1       5.986  16.047   9.777  0.00  0.00    +0.000 C 
ATOM     21  O   UNL     1       6.948  16.741   9.444  0.00  0.00    +0.000 OA
BRANCH  19  23
ATOM     22  C   UNL     1       4.111  18.881  11.016  0.00  0.00    +0.000 C 
ATOM     23  C   UNL     1       4.442  18.023   9.801  0.00  0.00    +0.000 C 
ENDBRANCH  19  23
BRANCH  19  24
ATOM     24  C   UNL     1       3.656  15.859  10.701  0.00  0.00    +0.000 C 
BRANCH  24  25
ATOM     25  C   UNL     1       2.385  15.558   9.931  0.00  0.00    +0.000 A 
ATOM     26  C   UNL     1       2.054  14.237   9.566  0.00  0.00    +0.000 A 
ATOM     27 CL   UNL     1       3.067  12.893   9.950  0.00  0.00    +0.000 Cl
ATOM     28  C   UNL     1       0.877  13.950   8.865  0.00  0.00    +0.000 A 
ATOM     29  C   UNL     1       0.014  14.977   8.499  0.00  0.00    +0.000 A 
ATOM     30  C   UNL     1       0.348  16.292   8.807  0.00  0.00    +0.000 A 
ATOM     31 CL   UNL     1      -0.699  17.568   8.324  0.00  0.00    +0.000 Cl
ATOM     32  C   UNL     1       1.523  16.587   9.507  0.00  0.00    +0.000 A 
ENDBRANCH  24  25
ENDBRANCH  19  24
ENDBRANCH  18  20
ENDBRANCH   1  18
TORSDOF 6
ENDMDL
