MODEL 1
REMARK VINA RESULT:    -5.621      0.000      0.000
REMARK INTER + INTRA:         -10.345
REMARK INTER:                  -7.921
REMARK INTRA:                  -2.424
REMARK UNBOUND:                -2.424
REMARK  Name = emap3_Bn-3CF3_4F_Me
REMARK  9 active torsions:
REMARK  status: ('A' for Active; 'I' for Inactive)
REMARK    1  A    between atoms: C_1  and  C_2
REMARK    2  A    between atoms: C_2  and  N_3
REMARK    3  A    between atoms: N_3  and  C_4
REMARK    4  A    between atoms: C_4  and  C_5
REMARK    5  A    between atoms: C_6  and  C_7
REMARK    6  A    between atoms: C_16  and  C_18
REMARK    7  A    between atoms: C_18  and  N_19
REMARK    8  A    between atoms: C_24  and  C_26
REMARK    9  A    between atoms: N_32  and  C_35
REMARK                            x       y       z     vdW  Elec       q    Type
REMARK                         _______ _______ _______ _____ _____    ______ ____
ROOT
ATOM      1  C   UNL     1       5.545  14.821   7.052  0.00  0.00    +0.000 C 
ENDROOT
BRANCH   1   2
ATOM      2  N   UNL     1       5.685  13.985   8.237  0.00  0.00    +0.000 N 
ATOM      3  C   UNL     1       4.856  13.887   9.292  0.00  0.00    +0.000 A 
ATOM      4  C   UNL     1       5.377  13.035  10.212  0.00  0.00    +0.000 A 
ATOM      5  C   UNL     1       4.705  12.790  11.399  0.00  0.00    +0.000 A 
ATOM      6  N   UNL     1       3.516  13.437  11.589  0.00  0.00    +0.000 NA
ATOM      7  C   UNL     1       2.999  14.301  10.650  0.00  0.00    +0.000 A 
ATOM      8  N   UNL     1       3.681  14.532   9.483  0.00  0.00    +0.000 NA
ATOM      9  N   UNL     1       6.557  12.568   9.770  0.00  0.00    +0.000 N 
ATOM     10  C   UNL     1       6.721  13.171   8.565  0.00  0.00    +0.000 A 
ATOM     11  O   UNL     1       7.730  12.998   7.830  0.00  0.00    +0.000 OA
ATOM     12  C   UNL     1       7.465  11.650  10.440  0.00  0.00    +0.000 C 
BRANCH   7  13
ATOM     13  C   UNL     1       1.714  14.980  10.903  0.00  0.00    +0.000 A 
ATOM     14  C   UNL     1       1.258  15.982  10.034  0.00  0.00    +0.000 A 
ATOM     15  C   UNL     1       0.040  16.625  10.273  0.00  0.00    +0.000 A 
ATOM     16  C   UNL     1      -0.731  16.271  11.383  0.00  0.00    +0.000 A 
ATOM     17  C   UNL     1      -0.285  15.274  12.254  0.00  0.00    +0.000 A 
ATOM     18  C   UNL     1       0.933  14.631  12.015  0.00  0.00    +0.000 A 
ENDBRANCH   7  13
ENDBRANCH   1   2
BRANCH   1  20
ATOM     19  N   UNL     1       3.224  15.188   6.051  0.00  0.00    +0.000 N 
ATOM     20  C   UNL     1       4.392  14.364   6.212  0.00  0.00    +0.000 C 
ATOM     21  O   UNL     1       4.439  13.224   5.674  0.00  0.00    +0.000 OA
BRANCH  19  23
ATOM     22  C   UNL     1       3.405  17.610   5.799  0.00  0.00    +0.000 C 
ATOM     23  C   UNL     1       3.096  16.465   6.744  0.00  0.00    +0.000 C 
ENDBRANCH  19  23
BRANCH  19  24
ATOM     24  C   UNL     1       2.080  14.696   5.291  0.00  0.00    +0.000 C 
BRANCH  24  25
ATOM     25  C   UNL     1       0.818  14.799   6.094  0.00  0.00    +0.000 A 
ATOM     26  C   UNL     1       0.357  13.725   6.893  0.00  0.00    +0.000 A 
ATOM     27  C   UNL     1      -0.835  13.881   7.619  0.00  0.00    +0.000 A 
ATOM     28  C   UNL     1      -1.554  15.076   7.565  0.00  0.00    +0.000 A 
ATOM     29  C   UNL     1      -1.090  16.134   6.785  0.00  0.00    +0.000 A 
ATOM     30  F   UNL     1      -1.785  17.296   6.735  0.00  0.00    +0.000 F 
ATOM     31  C   UNL     1       0.091  15.996   6.054  0.00  0.00    +0.000 A 
BRANCH  26  32
ATOM     32  C   UNL     1       1.116  12.423   6.986  0.00  0.00    +0.000 C 
ATOM     33  F   UNL     1       2.192  12.569   7.842  0.00  0.00    +0.000 F 
ATOM     34  F   UNL     1       0.283  11.429   7.465  0.00  0.00    +0.000 F 
ATOM     35  F   UNL     1       1.592  12.034   5.744  0.00  0.00    +0.000 F 
ENDBRANCH  26  32
ENDBRANCH  24  25
ENDBRANCH  19  24
ENDBRANCH   1  20
TORSDOF 7
ENDMDL
MODEL 2
REMARK VINA RESULT:    -5.614      1.784      4.381
REMARK INTER + INTRA:         -10.335
REMARK INTER:                  -7.880
REMARK INTRA:                  -2.455
REMARK UNBOUND:                -2.424
REMARK  Name = emap3_Bn-3CF3_4F_Me
REMARK  9 active torsions:
REMARK  status: ('A' for Active; 'I' for Inactive)
REMARK    1  A    between atoms: C_1  and  C_2
REMARK    2  A    between atoms: C_2  and  N_3
REMARK    3  A    between atoms: N_3  and  C_4
REMARK    4  A    between atoms: C_4  and  C_5
REMARK    5  A    between atoms: C_6  and  C_7
REMARK    6  A    between atoms: C_16  and  C_18
REMARK    7  A    between atoms: C_18  and  N_19
REMARK    8  A    between atoms: C_24  and  C_26
REMARK    9  A    between atoms: N_32  and  C_35
REMARK                            x       y       z     vdW  Elec       q    Type
REMARK                         _______ _______ _______ _____ _____    ______ ____
ROOT
ATOM      1  C   UNL     1       4.447  14.122  10.146  0.00  0.00    +0.000 C 
ENDROOT
BRANCH   1   2
ATOM      2  N   UNL     1       5.531  13.851   9.211  0.00  0.00    +0.000 N 
ATOM      3  C   UNL     1       5.774  14.432   8.023  0.00  0.00    +0.000 A 
ATOM      4  C   UNL     1       6.853  13.854   7.436  0.00  0.00    +0.000 A 
ATOM      5  C   UNL     1       7.283  14.278   6.189  0.00  0.00    +0.000 A 
ATOM      6  N   UNL     1       6.578  15.287   5.594  0.00  0.00    +0.000 NA
ATOM      7  C   UNL     1       5.483  15.863   6.197  0.00  0.00    +0.000 A 
ATOM      8  N   UNL     1       5.072  15.427   7.431  0.00  0.00    +0.000 NA
ATOM      9  N   UNL     1       7.328  12.883   8.235  0.00  0.00    +0.000 N 
ATOM     10  C   UNL     1       6.497  12.901   9.308  0.00  0.00    +0.000 A 
ATOM     11  O   UNL     1       6.606  12.115  10.287  0.00  0.00    +0.000 OA
ATOM     12  C   UNL     1       8.457  11.998   7.993  0.00  0.00    +0.000 C 
BRANCH   7  13
ATOM     13  C   UNL     1       4.750  16.945   5.513  0.00  0.00    +0.000 A 
ATOM     14  C   UNL     1       3.376  17.122   5.733  0.00  0.00    +0.000 A 
ATOM     15  C   UNL     1       2.682  18.148   5.087  0.00  0.00    +0.000 A 
ATOM     16  C   UNL     1       3.356  19.006   4.213  0.00  0.00    +0.000 A 
ATOM     17  C   UNL     1       4.724  18.838   3.987  0.00  0.00    +0.000 A 
ATOM     18  C   UNL     1       5.418  17.811   4.635  0.00  0.00    +0.000 A 
ENDBRANCH   7  13
ENDBRANCH   1   2
BRANCH   1  20
ATOM     19  N   UNL     1       2.153  14.586   9.123  0.00  0.00    +0.000 N 
ATOM     20  C   UNL     1       3.138  13.648   9.592  0.00  0.00    +0.000 C 
ATOM     21  O   UNL     1       2.890  12.412   9.576  0.00  0.00    +0.000 OA
BRANCH  19  23
ATOM     22  C   UNL     1       1.636  16.584  10.428  0.00  0.00    +0.000 C 
ATOM     23  C   UNL     1       2.368  16.025   9.224  0.00  0.00    +0.000 C 
ENDBRANCH  19  23
BRANCH  19  24
ATOM     24  C   UNL     1       0.855  14.111   8.655  0.00  0.00    +0.000 C 
BRANCH  24  25
ATOM     25  C   UNL     1       0.530  14.680   7.306  0.00  0.00    +0.000 A 
ATOM     26  C   UNL     1       0.963  14.055   6.113  0.00  0.00    +0.000 A 
ATOM     27  C   UNL     1       0.632  14.639   4.881  0.00  0.00    +0.000 A 
ATOM     28  C   UNL     1      -0.121  15.813   4.824  0.00  0.00    +0.000 A 
ATOM     29  C   UNL     1      -0.556  16.419   6.003  0.00  0.00    +0.000 A 
ATOM     30  F   UNL     1      -1.289  17.556   5.950  0.00  0.00    +0.000 F 
ATOM     31  C   UNL     1      -0.232  15.854   7.237  0.00  0.00    +0.000 A 
BRANCH  26  32
ATOM     32  C   UNL     1       1.768  12.777   6.135  0.00  0.00    +0.000 C 
ATOM     33  F   UNL     1       1.774  12.207   4.876  0.00  0.00    +0.000 F 
ATOM     34  F   UNL     1       3.069  13.050   6.519  0.00  0.00    +0.000 F 
ATOM     35  F   UNL     1       1.231  11.864   7.028  0.00  0.00    +0.000 F 
ENDBRANCH  26  32
ENDBRANCH  24  25
ENDBRANCH  19  24
ENDBRANCH   1  20
TORSDOF 7
ENDMDL
MODEL 3
REMARK VINA RESULT:    -5.497      3.259      6.223
REMARK INTER + INTRA:         -10.171
REMARK INTER:                  -9.125
REMARK INTRA:                  -1.046
REMARK UNBOUND:                -2.424
REMARK  Name = emap3_Bn-3CF3_4F_Me
REMARK  9 active torsions:
REMARK  status: ('A' for Active; 'I' for Inactive)
REMARK    1  A    between atoms: C_1  and  C_2
REMARK    2  A    between atoms: C_2  and  N_3
REMARK    3  A    between atoms: N_3  and  C_4
REMARK    4  A    between atoms: C_4  and  C_5
REMARK    5  A    between atoms: C_6  and  C_7
REMARK    6  A    between atoms: C_16  and  C_18
REMARK    7  A    between atoms: C_18  and  N_19
REMARK    8  A    between atoms: C_24  and  C_26
REMARK    9  A    between atoms: N_32  and  C_35
REMARK                            x       y       z     vdW  Elec       q    Type
REMARK                         _______ _______ _______ _____ _____    ______ ____
ROOT
ATOM      1  C   UNL     1       6.438  14.093   8.812  0.00  0.00    +0.000 C 
ENDROOT
BRANCH   1   2
ATOM      2  N   UNL     1       7.100  12.795   8.806  0.00  0.00    +0.000 N 
ATOM      3  C   UNL     1       7.741  12.190   7.791  0.00  0.00    +0.000 A 
ATOM      4  C   UNL     1       8.170  10.962   8.181  0.00  0.00    +0.000 A 
ATOM      5  C   UNL     1       8.845  10.141   7.291  0.00  0.00    +0.000 A 
ATOM      6  N   UNL     1       9.050  10.623   6.029  0.00  0.00    +0.000 NA
ATOM      7  C   UNL     1       8.607  11.868   5.643  0.00  0.00    +0.000 A 
ATOM      8  N   UNL     1       7.939  12.664   6.538  0.00  0.00    +0.000 NA
ATOM      9  N   UNL     1       7.811  10.749   9.458  0.00  0.00    +0.000 N 
ATOM     10  C   UNL     1       7.154  11.883   9.811  0.00  0.00    +0.000 A 
ATOM     11  O   UNL     1       6.642  12.067  10.947  0.00  0.00    +0.000 OA
ATOM     12  C   UNL     1       8.048   9.565  10.269  0.00  0.00    +0.000 C 
BRANCH   7  13
ATOM     13  C   UNL     1       8.846  12.342   4.267  0.00  0.00    +0.000 A 
ATOM     14  C   UNL     1      10.147  12.373   3.742  0.00  0.00    +0.000 A 
ATOM     15  C   UNL     1      10.373  12.820   2.438  0.00  0.00    +0.000 A 
ATOM     16  C   UNL     1       9.301  13.242   1.648  0.00  0.00    +0.000 A 
ATOM     17  C   UNL     1       8.002  13.215   2.161  0.00  0.00    +0.000 A 
ATOM     18  C   UNL     1       7.776  12.766   3.466  0.00  0.00    +0.000 A 
ENDBRANCH   7  13
ENDBRANCH   1   2
BRANCH   1  20
ATOM     19  N   UNL     1       4.252  14.041   7.490  0.00  0.00    +0.000 N 
ATOM     20  C   UNL     1       4.949  13.931   8.744  0.00  0.00    +0.000 C 
ATOM     21  O   UNL     1       4.305  13.732   9.809  0.00  0.00    +0.000 OA
BRANCH  19  23
ATOM     22  C   UNL     1       4.891  13.211   5.284  0.00  0.00    +0.000 C 
ATOM     23  C   UNL     1       4.958  14.372   6.257  0.00  0.00    +0.000 C 
ENDBRANCH  19  23
BRANCH  19  24
ATOM     24  C   UNL     1       2.796  13.953   7.453  0.00  0.00    +0.000 C 
BRANCH  24  25
ATOM     25  C   UNL     1       2.208  15.119   6.716  0.00  0.00    +0.000 A 
ATOM     26  C   UNL     1       1.268  14.941   5.673  0.00  0.00    +0.000 A 
ATOM     27  C   UNL     1       0.757  16.072   5.017  0.00  0.00    +0.000 A 
ATOM     28  C   UNL     1       1.157  17.356   5.389  0.00  0.00    +0.000 A 
ATOM     29  C   UNL     1       2.075  17.527   6.425  0.00  0.00    +0.000 A 
ATOM     30  F   UNL     1       2.462  18.773   6.789  0.00  0.00    +0.000 F 
ATOM     31  C   UNL     1       2.596  16.414   7.086  0.00  0.00    +0.000 A 
BRANCH  26  32
ATOM     32  C   UNL     1       0.802  13.567   5.252  0.00  0.00    +0.000 C 
ATOM     33  F   UNL     1       0.128  12.962   6.297  0.00  0.00    +0.000 F 
ATOM     34  F   UNL     1      -0.043  13.673   4.163  0.00  0.00    +0.000 F 
ATOM     35  F   UNL     1       1.874  12.764   4.897  0.00  0.00    +0.000 F 
ENDBRANCH  26  32
ENDBRANCH  24  25
ENDBRANCH  19  24
ENDBRANCH   1  20
TORSDOF 7
ENDMDL
