MODEL 1
REMARK VINA RESULT:    -4.834      0.000      0.000
REMARK INTER + INTRA:          -9.819
REMARK INTER:                  -6.812
REMARK INTRA:                  -3.007
REMARK UNBOUND:                -3.007
REMARK  Name = emap3_Bn-3Cl_CH2F
REMARK  8 active torsions:
REMARK  status: ('A' for Active; 'I' for Inactive)
REMARK    1  A    between atoms: C_1  and  C_2
REMARK    2  A    between atoms: C_2  and  N_3
REMARK    3  A    between atoms: N_3  and  C_4
REMARK    4  A    between atoms: C_4  and  C_5
REMARK    5  A    between atoms: C_12  and  C_14
REMARK    6  A    between atoms: C_14  and  N_15
REMARK    7  A    between atoms: C_20  and  C_22
REMARK    8  A    between atoms: N_28  and  C_31
REMARK                            x       y       z     vdW  Elec       q    Type
REMARK                         _______ _______ _______ _____ _____    ______ ____
ROOT
ATOM      1  N   UNL     1       0.834  15.145  12.178  0.00  0.00    +0.000 N 
ATOM      2  C   UNL     1       0.362  15.322  10.932  0.00  0.00    +0.000 A 
ATOM      3  C   UNL     1      -0.661  16.216  10.945  0.00  0.00    +0.000 A 
ATOM      4  C   UNL     1      -1.340  16.520   9.776  0.00  0.00    +0.000 A 
ATOM      5  N   UNL     1      -0.930  15.892   8.634  0.00  0.00    +0.000 NA
ATOM      6  C   UNL     1       0.106  14.986   8.633  0.00  0.00    +0.000 A 
ATOM      7  N   UNL     1       0.758  14.691   9.802  0.00  0.00    +0.000 NA
ATOM      8  N   UNL     1      -0.866  16.639  12.205  0.00  0.00    +0.000 N 
ATOM      9  C   UNL     1       0.048  15.952  12.936  0.00  0.00    +0.000 A 
ATOM     10  O   UNL     1       0.141  16.037  14.191  0.00  0.00    +0.000 OA
ENDROOT
BRANCH   6  11
ATOM     11  C   UNL     1       0.510  14.328   7.376  0.00  0.00    +0.000 A 
ATOM     12  C   UNL     1       0.263  14.945   6.140  0.00  0.00    +0.000 A 
ATOM     13  C   UNL     1       0.648  14.322   4.949  0.00  0.00    +0.000 A 
ATOM     14  C   UNL     1       1.280  13.076   4.985  0.00  0.00    +0.000 A 
ATOM     15  C   UNL     1       1.529  12.454   6.211  0.00  0.00    +0.000 A 
ATOM     16  C   UNL     1       1.145  13.077   7.402  0.00  0.00    +0.000 A 
ENDBRANCH   6  11
BRANCH   8  17
ATOM     17  C   UNL     1      -1.925  17.511  12.692  0.00  0.00    +0.000 C 
ATOM     18  F   UNL     1      -1.677  18.810  12.288  0.00  0.00    +0.000 F 
ENDBRANCH   8  17
BRANCH   1  19
ATOM     19  C   UNL     1       1.848  14.195  12.619  0.00  0.00    +0.000 C 
BRANCH  19  21
ATOM     20  N   UNL     1       3.798  13.781  11.022  0.00  0.00    +0.000 N 
ATOM     21  C   UNL     1       3.186  14.566  12.058  0.00  0.00    +0.000 C 
ATOM     22  O   UNL     1       3.779  15.581  12.516  0.00  0.00    +0.000 OA
BRANCH  20  24
ATOM     23  C   UNL     1       4.138  11.376  11.304  0.00  0.00    +0.000 C 
ATOM     24  C   UNL     1       3.293  12.461  10.663  0.00  0.00    +0.000 C 
ENDBRANCH  20  24
BRANCH  20  25
ATOM     25  C   UNL     1       4.996  14.264  10.347  0.00  0.00    +0.000 C 
BRANCH  25  26
ATOM     26  C   UNL     1       4.670  14.654   8.944  0.00  0.00    +0.000 A 
ATOM     27  C   UNL     1       5.046  13.824   7.883  0.00  0.00    +0.000 A 
ATOM     28  C   UNL     1       4.709  14.169   6.571  0.00  0.00    +0.000 A 
ATOM     29 CL   UNL     1       5.181  13.130   5.245  0.00  0.00    +0.000 Cl
ATOM     30  C   UNL     1       3.990  15.342   6.319  0.00  0.00    +0.000 A 
ATOM     31  C   UNL     1       3.607  16.168   7.379  0.00  0.00    +0.000 A 
ATOM     32  C   UNL     1       3.945  15.824   8.691  0.00  0.00    +0.000 A 
ENDBRANCH  25  26
ENDBRANCH  20  25
ENDBRANCH  19  21
ENDBRANCH   1  19
TORSDOF 7
ENDMDL
MODEL 2
REMARK VINA RESULT:    -4.543      4.320      7.007
REMARK INTER + INTRA:          -9.409
REMARK INTER:                  -6.384
REMARK INTRA:                  -3.025
REMARK UNBOUND:                -3.007
REMARK  Name = emap3_Bn-3Cl_CH2F
REMARK  8 active torsions:
REMARK  status: ('A' for Active; 'I' for Inactive)
REMARK    1  A    between atoms: C_1  and  C_2
REMARK    2  A    between atoms: C_2  and  N_3
REMARK    3  A    between atoms: N_3  and  C_4
REMARK    4  A    between atoms: C_4  and  C_5
REMARK    5  A    between atoms: C_12  and  C_14
REMARK    6  A    between atoms: C_14  and  N_15
REMARK    7  A    between atoms: C_20  and  C_22
REMARK    8  A    between atoms: N_28  and  C_31
REMARK                            x       y       z     vdW  Elec       q    Type
REMARK                         _______ _______ _______ _____ _____    ______ ____
ROOT
ATOM      1  N   UNL     1       7.468  15.469   7.690  0.00  0.00    +0.000 N 
ATOM      2  C   UNL     1       6.658  14.697   6.945  0.00  0.00    +0.000 A 
ATOM      3  C   UNL     1       7.374  13.701   6.361  0.00  0.00    +0.000 A 
ATOM      4  C   UNL     1       6.757  12.807   5.501  0.00  0.00    +0.000 A 
ATOM      5  N   UNL     1       5.418  12.970   5.285  0.00  0.00    +0.000 NA
ATOM      6  C   UNL     1       4.702  13.983   5.881  0.00  0.00    +0.000 A 
ATOM      7  N   UNL     1       5.334  14.865   6.720  0.00  0.00    +0.000 NA
ATOM      8  N   UNL     1       8.665  13.810   6.722  0.00  0.00    +0.000 N 
ATOM      9  C   UNL     1       8.693  14.909   7.517  0.00  0.00    +0.000 A 
ATOM     10  O   UNL     1       9.750  15.376   8.021  0.00  0.00    +0.000 OA
ENDROOT
BRANCH   6  11
ATOM     11  C   UNL     1       3.259  14.125   5.614  0.00  0.00    +0.000 A 
ATOM     12  C   UNL     1       2.645  15.385   5.681  0.00  0.00    +0.000 A 
ATOM     13  C   UNL     1       1.276  15.520   5.425  0.00  0.00    +0.000 A 
ATOM     14  C   UNL     1       0.513  14.396   5.102  0.00  0.00    +0.000 A 
ATOM     15  C   UNL     1       1.116  13.137   5.033  0.00  0.00    +0.000 A 
ATOM     16  C   UNL     1       2.483  13.002   5.288  0.00  0.00    +0.000 A 
ENDBRANCH   6  11
BRANCH   8  17
ATOM     17  C   UNL     1       9.794  13.025   6.246  0.00  0.00    +0.000 C 
ATOM     18  F   UNL     1      10.009  13.290   4.906  0.00  0.00    +0.000 F 
ENDBRANCH   8  17
BRANCH   1  19
ATOM     19  C   UNL     1       7.125  16.701   8.390  0.00  0.00    +0.000 C 
BRANCH  19  21
ATOM     20  N   UNL     1       4.817  16.890   9.467  0.00  0.00    +0.000 N 
ATOM     21  C   UNL     1       6.173  16.415   9.509  0.00  0.00    +0.000 C 
ATOM     22  O   UNL     1       6.579  15.754  10.503  0.00  0.00    +0.000 OA
BRANCH  20  24
ATOM     23  C   UNL     1       3.632  19.008   9.174  0.00  0.00    +0.000 C 
ATOM     24  C   UNL     1       4.384  17.883   8.490  0.00  0.00    +0.000 C 
ENDBRANCH  20  24
BRANCH  20  25
ATOM     25  C   UNL     1       3.849  16.435  10.457  0.00  0.00    +0.000 C 
BRANCH  25  26
ATOM     26  C   UNL     1       2.961  15.394   9.864  0.00  0.00    +0.000 A 
ATOM     27  C   UNL     1       1.659  15.725   9.476  0.00  0.00    +0.000 A 
ATOM     28  C   UNL     1       0.837  14.760   8.886  0.00  0.00    +0.000 A 
ATOM     29 CL   UNL     1      -0.793  15.176   8.403  0.00  0.00    +0.000 Cl
ATOM     30  C   UNL     1       1.320  13.464   8.676  0.00  0.00    +0.000 A 
ATOM     31  C   UNL     1       2.623  13.134   9.056  0.00  0.00    +0.000 A 
ATOM     32  C   UNL     1       3.445  14.099   9.647  0.00  0.00    +0.000 A 
ENDBRANCH  25  26
ENDBRANCH  20  25
ENDBRANCH  19  21
ENDBRANCH   1  19
TORSDOF 7
ENDMDL
MODEL 3
REMARK VINA RESULT:    -4.497      4.053      6.703
REMARK INTER + INTRA:          -9.345
REMARK INTER:                  -7.076
REMARK INTRA:                  -2.269
REMARK UNBOUND:                -3.007
REMARK  Name = emap3_Bn-3Cl_CH2F
REMARK  8 active torsions:
REMARK  status: ('A' for Active; 'I' for Inactive)
REMARK    1  A    between atoms: C_1  and  C_2
REMARK    2  A    between atoms: C_2  and  N_3
REMARK    3  A    between atoms: N_3  and  C_4
REMARK    4  A    between atoms: C_4  and  C_5
REMARK    5  A    between atoms: C_12  and  C_14
REMARK    6  A    between atoms: C_14  and  N_15
REMARK    7  A    between atoms: C_20  and  C_22
REMARK    8  A    between atoms: N_28  and  C_31
REMARK                            x       y       z     vdW  Elec       q    Type
REMARK                         _______ _______ _______ _____ _____    ______ ____
ROOT
ATOM      1  N   UNL     1       6.762  14.311   8.705  0.00  0.00    +0.000 N 
ATOM      2  C   UNL     1       6.075  13.967   7.603  0.00  0.00    +0.000 A 
ATOM      3  C   UNL     1       6.865  13.238   6.772  0.00  0.00    +0.000 A 
ATOM      4  C   UNL     1       6.385  12.813   5.544  0.00  0.00    +0.000 A 
ATOM      5  N   UNL     1       5.100  13.150   5.224  0.00  0.00    +0.000 NA
ATOM      6  C   UNL     1       4.309  13.890   6.073  0.00  0.00    +0.000 A 
ATOM      7  N   UNL     1       4.807  14.311   7.279  0.00  0.00    +0.000 NA
ATOM      8  N   UNL     1       8.082  13.094   7.327  0.00  0.00    +0.000 N 
ATOM      9  C   UNL     1       7.992  13.777   8.496  0.00  0.00    +0.000 A 
ATOM     10  O   UNL     1       8.959  13.921   9.293  0.00  0.00    +0.000 OA
ENDROOT
BRANCH   6  11
ATOM     11  C   UNL     1       2.929  14.237   5.683  0.00  0.00    +0.000 A 
ATOM     12  C   UNL     1       2.503  15.574   5.695  0.00  0.00    +0.000 A 
ATOM     13  C   UNL     1       1.195  15.902   5.323  0.00  0.00    +0.000 A 
ATOM     14  C   UNL     1       0.305  14.896   4.939  0.00  0.00    +0.000 A 
ATOM     15  C   UNL     1       0.721  13.563   4.925  0.00  0.00    +0.000 A 
ATOM     16  C   UNL     1       2.027  13.234   5.295  0.00  0.00    +0.000 A 
ENDBRANCH   6  11
BRANCH   8  17
ATOM     17  C   UNL     1       9.264  12.483   6.738  0.00  0.00    +0.000 C 
ATOM     18  F   UNL     1       9.361  11.168   7.154  0.00  0.00    +0.000 F 
ENDBRANCH   8  17
BRANCH   1  19
ATOM     19  C   UNL     1       6.324  15.181   9.790  0.00  0.00    +0.000 C 
BRANCH  19  21
ATOM     20  N   UNL     1       4.080  15.301  11.004  0.00  0.00    +0.000 N 
ATOM     21  C   UNL     1       5.212  14.536  10.556  0.00  0.00    +0.000 C 
ATOM     22  O   UNL     1       5.283  13.304  10.816  0.00  0.00    +0.000 OA
BRANCH  20  24
ATOM     23  C   UNL     1       4.082  17.316  12.389  0.00  0.00    +0.000 C 
ATOM     24  C   UNL     1       4.084  16.760  10.977  0.00  0.00    +0.000 C 
ENDBRANCH  20  24
BRANCH  20  25
ATOM     25  C   UNL     1       2.916  14.629  11.566  0.00  0.00    +0.000 C 
BRANCH  25  26
ATOM     26  C   UNL     1       1.744  14.789  10.656  0.00  0.00    +0.000 A 
ATOM     27  C   UNL     1       0.687  15.630  11.020  0.00  0.00    +0.000 A 
ATOM     28  C   UNL     1      -0.394  15.810  10.154  0.00  0.00    +0.000 A 
ATOM     29 CL   UNL     1      -1.717  16.861  10.612  0.00  0.00    +0.000 Cl
ATOM     30  C   UNL     1      -0.417  15.157   8.917  0.00  0.00    +0.000 A 
ATOM     31  C   UNL     1       0.642  14.323   8.548  0.00  0.00    +0.000 A 
ATOM     32  C   UNL     1       1.724  14.141   9.416  0.00  0.00    +0.000 A 
ENDBRANCH  25  26
ENDBRANCH  20  25
ENDBRANCH  19  21
ENDBRANCH   1  19
TORSDOF 7
ENDMDL
