MODEL 1
REMARK VINA RESULT:    -6.605      0.000      0.000
REMARK INTER + INTRA:         -10.922
REMARK INTER:                  -9.693
REMARK INTRA:                  -1.228
REMARK UNBOUND:                -1.228
REMARK  Name = emap2_Bn_CH2CF3
REMARK  9 active torsions:
REMARK  status: ('A' for Active; 'I' for Inactive)
REMARK    1  A    between atoms: C_1  and  C_2
REMARK    2  A    between atoms: C_2  and  N_3
REMARK    3  A    between atoms: N_3  and  C_4
REMARK    4  A    between atoms: C_4  and  C_5
REMARK    5  A    between atoms: C_11  and  C_13
REMARK    6  A    between atoms: C_13  and  N_14
REMARK    7  A    between atoms: C_19  and  C_21
REMARK    8  A    between atoms: N_27  and  C_30
REMARK    9  A    between atoms: C_30  and  C_31
REMARK                            x       y       z     vdW  Elec       q    Type
REMARK                         _______ _______ _______ _____ _____    ______ ____
ROOT
ATOM      1  N   UNL     1       7.198  13.063   8.383  0.00  0.00    +0.000 N 
ATOM      2  C   UNL     1       7.614  12.879   7.062  0.00  0.00    +0.000 A 
ATOM      3  C   UNL     1       8.352  11.711   7.031  0.00  0.00    +0.000 A 
ATOM      4  C   UNL     1       8.807  11.300   5.820  0.00  0.00    +0.000 A 
ATOM      5  N   UNL     1       8.562  12.026   4.712  0.00  0.00    +0.000 NA
ATOM      6  C   UNL     1       7.843  13.181   4.844  0.00  0.00    +0.000 A 
ATOM      7  N   UNL     1       7.335  13.647   6.007  0.00  0.00    +0.000 NA
ATOM      8  N   UNL     1       8.450  11.197   8.325  0.00  0.00    +0.000 N 
ATOM      9  C   UNL     1       7.718  12.037   9.184  0.00  0.00    +0.000 A 
ATOM     10  O   UNL     1       7.567  11.880  10.385  0.00  0.00    +0.000 OA
ENDROOT
BRANCH   6  11
ATOM     11  C   UNL     1       7.601  13.959   3.609  0.00  0.00    +0.000 A 
ATOM     12  C   UNL     1       7.376  15.351   3.659  0.00  0.00    +0.000 A 
ATOM     13  C   UNL     1       7.154  16.103   2.502  0.00  0.00    +0.000 A 
ATOM     14  C   UNL     1       7.148  15.479   1.260  0.00  0.00    +0.000 A 
ATOM     15  C   UNL     1       7.360  14.104   1.175  0.00  0.00    +0.000 A 
ATOM     16  C   UNL     1       7.583  13.356   2.338  0.00  0.00    +0.000 A 
ENDBRANCH   6  11
BRANCH   8  17
ATOM     17  C   UNL     1       9.119   9.978   8.727  0.00  0.00    +0.000 C 
BRANCH  17  18
ATOM     18  C   UNL     1       8.422   8.683   8.307  0.00  0.00    +0.000 C 
ATOM     19  F   UNL     1       8.665   8.351   7.021  0.00  0.00    +0.000 F 
ATOM     20  F   UNL     1       8.862   7.652   9.071  0.00  0.00    +0.000 F 
ATOM     21  F   UNL     1       7.083   8.760   8.472  0.00  0.00    +0.000 F 
ENDBRANCH  17  18
ENDBRANCH   8  17
BRANCH   1  22
ATOM     22  C   UNL     1       6.460  14.204   8.857  0.00  0.00    +0.000 C 
BRANCH  22  24
ATOM     23  N   UNL     1       3.984  13.910   8.569  0.00  0.00    +0.000 N 
ATOM     24  C   UNL     1       5.087  13.801   9.427  0.00  0.00    +0.000 C 
ATOM     25  O   UNL     1       4.996  13.398  10.589  0.00  0.00    +0.000 OA
BRANCH  23  27
ATOM     26  C   UNL     1       1.780  14.623   9.727  0.00  0.00    +0.000 C 
ATOM     27  C   UNL     1       2.609  13.582   8.990  0.00  0.00    +0.000 C 
ENDBRANCH  23  27
BRANCH  23  28
ATOM     28  C   UNL     1       4.103  14.405   7.189  0.00  0.00    +0.000 C 
BRANCH  28  29
ATOM     29  C   UNL     1       2.874  14.256   6.316  0.00  0.00    +0.000 A 
ATOM     30  C   UNL     1       2.019  15.318   5.992  0.00  0.00    +0.000 A 
ATOM     31  C   UNL     1       0.876  15.105   5.214  0.00  0.00    +0.000 A 
ATOM     32  C   UNL     1       0.573  13.829   4.746  0.00  0.00    +0.000 A 
ATOM     33  C   UNL     1       1.419  12.765   5.040  0.00  0.00    +0.000 A 
ATOM     34  C   UNL     1       2.561  12.977   5.817  0.00  0.00    +0.000 A 
ENDBRANCH  28  29
ENDBRANCH  23  28
ENDBRANCH  22  24
ENDBRANCH   1  22
TORSDOF 8
ENDMDL
MODEL 2
REMARK VINA RESULT:    -6.598      2.197      4.008
REMARK INTER + INTRA:         -10.912
REMARK INTER:                  -8.217
REMARK INTRA:                  -2.696
REMARK UNBOUND:                -1.228
REMARK  Name = emap2_Bn_CH2CF3
REMARK  9 active torsions:
REMARK  status: ('A' for Active; 'I' for Inactive)
REMARK    1  A    between atoms: C_1  and  C_2
REMARK    2  A    between atoms: C_2  and  N_3
REMARK    3  A    between atoms: N_3  and  C_4
REMARK    4  A    between atoms: C_4  and  C_5
REMARK    5  A    between atoms: C_11  and  C_13
REMARK    6  A    between atoms: C_13  and  N_14
REMARK    7  A    between atoms: C_19  and  C_21
REMARK    8  A    between atoms: N_27  and  C_30
REMARK    9  A    between atoms: C_30  and  C_31
REMARK                            x       y       z     vdW  Elec       q    Type
REMARK                         _______ _______ _______ _____ _____    ______ ____
ROOT
ATOM      1  N   UNL     1       7.073  13.641   8.647  0.00  0.00    +0.000 N 
ATOM      2  C   UNL     1       6.339  13.572   7.459  0.00  0.00    +0.000 A 
ATOM      3  C   UNL     1       7.175  13.030   6.501  0.00  0.00    +0.000 A 
ATOM      4  C   UNL     1       6.643  12.811   5.272  0.00  0.00    +0.000 A 
ATOM      5  N   UNL     1       5.362  13.136   5.010  0.00  0.00    +0.000 NA
ATOM      6  C   UNL     1       4.619  13.690   6.014  0.00  0.00    +0.000 A 
ATOM      7  N   UNL     1       5.065  13.919   7.270  0.00  0.00    +0.000 NA
ATOM      8  N   UNL     1       8.435  12.816   7.060  0.00  0.00    +0.000 N 
ATOM      9  C   UNL     1       8.380  13.190   8.416  0.00  0.00    +0.000 A 
ATOM     10  O   UNL     1       9.295  13.115   9.218  0.00  0.00    +0.000 OA
ENDROOT
BRANCH   6  11
ATOM     11  C   UNL     1       3.220  14.046   5.689  0.00  0.00    +0.000 A 
ATOM     12  C   UNL     1       2.774  15.381   5.762  0.00  0.00    +0.000 A 
ATOM     13  C   UNL     1       1.458  15.737   5.451  0.00  0.00    +0.000 A 
ATOM     14  C   UNL     1       0.550  14.759   5.060  0.00  0.00    +0.000 A 
ATOM     15  C   UNL     1       0.956  13.428   4.985  0.00  0.00    +0.000 A 
ATOM     16  C   UNL     1       2.276  13.079   5.297  0.00  0.00    +0.000 A 
ENDBRANCH   6  11
BRANCH   8  17
ATOM     17  C   UNL     1       9.591  12.244   6.403  0.00  0.00    +0.000 C 
BRANCH  17  18
ATOM     18  C   UNL     1       9.751  10.732   6.564  0.00  0.00    +0.000 C 
ATOM     19  F   UNL     1       8.614  10.054   6.300  0.00  0.00    +0.000 F 
ATOM     20  F   UNL     1      10.695  10.272   5.704  0.00  0.00    +0.000 F 
ATOM     21  F   UNL     1      10.152  10.402   7.812  0.00  0.00    +0.000 F 
ENDBRANCH  17  18
ENDBRANCH   8  17
BRANCH   1  22
ATOM     22  C   UNL     1       6.589  14.212   9.876  0.00  0.00    +0.000 C 
BRANCH  22  24
ATOM     23  N   UNL     1       4.620  13.490  11.256  0.00  0.00    +0.000 N 
ATOM     24  C   UNL     1       5.888  13.161  10.758  0.00  0.00    +0.000 C 
ATOM     25  O   UNL     1       6.443  12.085  10.992  0.00  0.00    +0.000 OA
BRANCH  23  27
ATOM     26  C   UNL     1       3.314  11.277  11.580  0.00  0.00    +0.000 C 
ATOM     27  C   UNL     1       3.848  12.590  12.132  0.00  0.00    +0.000 C 
ENDBRANCH  23  27
BRANCH  23  28
ATOM     28  C   UNL     1       3.975  14.784  10.981  0.00  0.00    +0.000 C 
BRANCH  28  29
ATOM     29  C   UNL     1       2.612  14.726  10.322  0.00  0.00    +0.000 A 
ATOM     30  C   UNL     1       2.317  13.913   9.220  0.00  0.00    +0.000 A 
ATOM     31  C   UNL     1       1.048  13.937   8.632  0.00  0.00    +0.000 A 
ATOM     32  C   UNL     1       0.055  14.771   9.139  0.00  0.00    +0.000 A 
ATOM     33  C   UNL     1       0.322  15.572  10.245  0.00  0.00    +0.000 A 
ATOM     34  C   UNL     1       1.590  15.548  10.833  0.00  0.00    +0.000 A 
ENDBRANCH  28  29
ENDBRANCH  23  28
ENDBRANCH  22  24
ENDBRANCH   1  22
TORSDOF 8
ENDMDL
MODEL 3
REMARK VINA RESULT:    -6.519      2.924      5.828
REMARK INTER + INTRA:         -10.797
REMARK INTER:                  -9.443
REMARK INTRA:                  -1.354
REMARK UNBOUND:                -1.228
REMARK  Name = emap2_Bn_CH2CF3
REMARK  9 active torsions:
REMARK  status: ('A' for Active; 'I' for Inactive)
REMARK    1  A    between atoms: C_1  and  C_2
REMARK    2  A    between atoms: C_2  and  N_3
REMARK    3  A    between atoms: N_3  and  C_4
REMARK    4  A    between atoms: C_4  and  C_5
REMARK    5  A    between atoms: C_11  and  C_13
REMARK    6  A    between atoms: C_13  and  N_14
REMARK    7  A    between atoms: C_19  and  C_21
REMARK    8  A    between atoms: N_27  and  C_30
REMARK    9  A    between atoms: C_30  and  C_31
REMARK                            x       y       z     vdW  Elec       q    Type
REMARK                         _______ _______ _______ _____ _____    ______ ____
ROOT
ATOM      1  N   UNL     1       7.927  12.536   5.633  0.00  0.00    +0.000 N 
ATOM      2  C   UNL     1       8.651  11.498   6.229  0.00  0.00    +0.000 A 
ATOM      3  C   UNL     1       9.924  11.536   5.693  0.00  0.00    +0.000 A 
ATOM      4  C   UNL     1      10.825  10.646   6.181  0.00  0.00    +0.000 A 
ATOM      5  N   UNL     1      10.469   9.758   7.129  0.00  0.00    +0.000 NA
ATOM      6  C   UNL     1       9.180   9.780   7.581  0.00  0.00    +0.000 A 
ATOM      7  N   UNL     1       8.229  10.647   7.166  0.00  0.00    +0.000 NA
ATOM      8  N   UNL     1       9.985  12.543   4.729  0.00  0.00    +0.000 N 
ATOM      9  C   UNL     1       8.734  13.186   4.690  0.00  0.00    +0.000 A 
ATOM     10  O   UNL     1       8.435  14.130   3.978  0.00  0.00    +0.000 OA
ENDROOT
BRANCH   6  11
ATOM     11  C   UNL     1       8.819   8.783   8.614  0.00  0.00    +0.000 A 
ATOM     12  C   UNL     1       9.769   7.860   9.097  0.00  0.00    +0.000 A 
ATOM     13  C   UNL     1       9.448   6.918  10.079  0.00  0.00    +0.000 A 
ATOM     14  C   UNL     1       8.160   6.873  10.602  0.00  0.00    +0.000 A 
ATOM     15  C   UNL     1       7.195   7.766  10.141  0.00  0.00    +0.000 A 
ATOM     16  C   UNL     1       7.523   8.708   9.159  0.00  0.00    +0.000 A 
ENDBRANCH   6  11
BRANCH   8  17
ATOM     17  C   UNL     1      11.141  12.927   3.947  0.00  0.00    +0.000 C 
BRANCH  17  18
ATOM     18  C   UNL     1      11.289  12.207   2.606  0.00  0.00    +0.000 C 
ATOM     19  F   UNL     1      10.130  12.135   1.919  0.00  0.00    +0.000 F 
ATOM     20  F   UNL     1      12.174  12.871   1.819  0.00  0.00    +0.000 F 
ATOM     21  F   UNL     1      11.760  10.950   2.763  0.00  0.00    +0.000 F 
ENDBRANCH  17  18
ENDBRANCH   8  17
BRANCH   1  22
ATOM     22  C   UNL     1       6.532  12.799   5.866  0.00  0.00    +0.000 C 
BRANCH  22  24
ATOM     23  N   UNL     1       5.416  14.701   7.066  0.00  0.00    +0.000 N 
ATOM     24  C   UNL     1       6.311  13.625   7.147  0.00  0.00    +0.000 C 
ATOM     25  O   UNL     1       6.907  13.324   8.185  0.00  0.00    +0.000 OA
BRANCH  23  27
ATOM     26  C   UNL     1       4.111  15.168   9.253  0.00  0.00    +0.000 C 
ATOM     27  C   UNL     1       5.131  15.590   8.207  0.00  0.00    +0.000 C 
ENDBRANCH  23  27
BRANCH  23  28
ATOM     28  C   UNL     1       4.723  15.059   5.819  0.00  0.00    +0.000 C 
BRANCH  28  29
ATOM     29  C   UNL     1       3.309  14.538   5.667  0.00  0.00    +0.000 A 
ATOM     30  C   UNL     1       2.993  13.181   5.516  0.00  0.00    +0.000 A 
ATOM     31  C   UNL     1       1.668  12.770   5.338  0.00  0.00    +0.000 A 
ATOM     32  C   UNL     1       0.639  13.707   5.311  0.00  0.00    +0.000 A 
ATOM     33  C   UNL     1       0.929  15.058   5.478  0.00  0.00    +0.000 A 
ATOM     34  C   UNL     1       2.253  15.469   5.656  0.00  0.00    +0.000 A 
ENDBRANCH  28  29
ENDBRANCH  23  28
ENDBRANCH  22  24
ENDBRANCH   1  22
TORSDOF 8
ENDMDL
