MODEL 1
REMARK VINA RESULT:    -6.697      0.000      0.000
REMARK INTER + INTRA:         -10.672
REMARK INTER:                  -9.437
REMARK INTRA:                  -1.234
REMARK UNBOUND:                -1.234
REMARK SMILES CCN(Cc1cc(Cl)ccc1Cl)C(=O)Cn1c(=O)n(C)c2cnc(-c3ccccc3)nc21
REMARK SMILES IDX 13 1 14 2 3 3 2 4 1 5 4 6 5 7 6 8 11 9 7 10 10 11 9 12 12 13
REMARK SMILES IDX 8 14 15 15 16 16 17 17 32 18 18 19 19 20 21 21 31 22 22 23
REMARK SMILES IDX 24 24 23 25 20 26 25 27 26 28 30 29 27 30 29 31 28 32
REMARK H PARENT
ROOT
ATOM      1  C   UNL     1       8.918  13.301   2.689  1.00  0.00     0.243 C 
ATOM      2  O   UNL     1       9.667  12.776   1.861  1.00  0.00    -0.273 OA
ENDROOT
BRANCH   1   3
ATOM      3  N   UNL     1       8.972  14.677   2.957  1.00  0.00    -0.337 N 
BRANCH   3   4
ATOM      4  C   UNL     1      10.163  15.319   3.529  1.00  0.00     0.116 C 
ATOM      5  C   UNL     1       9.864  16.704   4.081  1.00  0.00     0.027 C 
ENDBRANCH   3   4
BRANCH   3   6
ATOM      6  C   UNL     1       7.999  15.513   2.246  1.00  0.00     0.156 C 
BRANCH   6   7
ATOM      7  C   UNL     1       7.743  15.097   0.816  1.00  0.00    -0.008 A 
ATOM      8  C   UNL     1       6.574  14.373   0.512  1.00  0.00     0.027 A 
ATOM      9  C   UNL     1       8.628  15.408  -0.230  1.00  0.00     0.046 A 
ATOM     10  C   UNL     1       6.307  13.968  -0.796  1.00  0.00     0.041 A 
ATOM     11  C   UNL     1       8.352  14.999  -1.541  1.00  0.00     0.022 A 
ATOM     12  C   UNL     1       7.191  14.279  -1.825  1.00  0.00     0.022 A 
ATOM     13  Cl  UNL     1      10.088  16.292   0.036  1.00  0.00    -0.084 Cl
ATOM     14  Cl  UNL     1       4.876  13.078  -1.139  1.00  0.00    -0.084 Cl
ENDBRANCH   6   7
ENDBRANCH   3   6
ENDBRANCH   1   3
BRANCH   1  15
ATOM     15  C   UNL     1       7.880  12.481   3.473  1.00  0.00     0.229 C 
BRANCH  15  16
ATOM     16  N   UNL     1       7.966  12.735   4.886  1.00  0.00    -0.267 N 
ATOM     17  C   UNL     1       9.038  12.381   5.719  1.00  0.00     0.330 A 
ATOM     18  C   UNL     1       6.873  13.109   5.673  1.00  0.00     0.165 A 
ATOM     19  O   UNL     1      10.125  11.951   5.368  1.00  0.00    -0.248 OA
ATOM     20  N   UNL     1       8.607  12.626   7.040  1.00  0.00    -0.292 N 
ATOM     21  C   UNL     1       7.276  13.047   6.988  1.00  0.00     0.107 A 
ATOM     22  N   UNL     1       5.660  13.459   5.246  1.00  0.00    -0.208 NA
ATOM     23  C   UNL     1       6.354  13.369   7.930  1.00  0.00     0.144 A 
ATOM     24  C   UNL     1       4.797  13.755   6.242  1.00  0.00     0.161 A 
ATOM     25  N   UNL     1       5.102  13.734   7.574  1.00  0.00    -0.234 NA
ATOM     26  C   UNL     1       9.348  12.351   8.236  1.00  0.00     0.155 C 
BRANCH  24  27
ATOM     27  C   UNL     1       3.419  14.134   5.862  1.00  0.00     0.019 A 
ATOM     28  C   UNL     1       2.454  13.164   5.524  1.00  0.00     0.012 A 
ATOM     29  C   UNL     1       3.013  15.482   5.819  1.00  0.00     0.012 A 
ATOM     30  C   UNL     1       1.151  13.524   5.162  1.00  0.00     0.001 A 
ATOM     31  C   UNL     1       1.713  15.845   5.455  1.00  0.00     0.001 A 
ATOM     32  C   UNL     1       0.781  14.864   5.128  1.00  0.00     0.000 A 
ENDBRANCH  24  27
ENDBRANCH  15  16
ENDBRANCH   1  15
TORSDOF 7
ENDMDL
MODEL 2
REMARK VINA RESULT:    -6.619      7.802     11.649
REMARK INTER + INTRA:         -10.562
REMARK INTER:                  -8.030
REMARK INTRA:                  -2.532
REMARK UNBOUND:                -1.234
REMARK SMILES CCN(Cc1cc(Cl)ccc1Cl)C(=O)Cn1c(=O)n(C)c2cnc(-c3ccccc3)nc21
REMARK SMILES IDX 13 1 14 2 3 3 2 4 1 5 4 6 5 7 6 8 11 9 7 10 10 11 9 12 12 13
REMARK SMILES IDX 8 14 15 15 16 16 17 17 32 18 18 19 19 20 21 21 31 22 22 23
REMARK SMILES IDX 24 24 23 25 20 26 25 27 26 28 30 29 27 30 29 31 28 32
REMARK H PARENT
ROOT
ATOM      1  C   UNL     1      -4.192  17.838   7.086  1.00  0.00     0.243 C 
ATOM      2  O   UNL     1      -4.619  18.925   7.483  1.00  0.00    -0.273 OA
ENDROOT
BRANCH   1   3
ATOM      3  N   UNL     1      -3.962  16.773   7.970  1.00  0.00    -0.337 N 
BRANCH   3   4
ATOM      4  C   UNL     1      -4.898  16.436   9.051  1.00  0.00     0.116 C 
ATOM      5  C   UNL     1      -4.563  17.154  10.350  1.00  0.00     0.027 C 
ENDBRANCH   3   4
BRANCH   3   6
ATOM      6  C   UNL     1      -3.017  15.748   7.517  1.00  0.00     0.156 C 
BRANCH   6   7
ATOM      7  C   UNL     1      -1.658  15.814   8.175  1.00  0.00    -0.008 A 
ATOM      8  C   UNL     1      -1.260  17.006   8.809  1.00  0.00     0.027 A 
ATOM      9  C   UNL     1      -0.770  14.724   8.182  1.00  0.00     0.046 A 
ATOM     10  C   UNL     1      -0.011  17.104   9.422  1.00  0.00     0.041 A 
ATOM     11  C   UNL     1       0.481  14.829   8.802  1.00  0.00     0.022 A 
ATOM     12  C   UNL     1       0.862  16.020   9.422  1.00  0.00     0.022 A 
ATOM     13  Cl  UNL     1      -1.163  13.217   7.435  1.00  0.00    -0.084 Cl
ATOM     14  Cl  UNL     1       0.455  18.575  10.182  1.00  0.00    -0.084 Cl
ENDBRANCH   6   7
ENDBRANCH   3   6
ENDBRANCH   1   3
BRANCH   1  15
ATOM     15  C   UNL     1      -3.889  17.585   5.600  1.00  0.00     0.229 C 
BRANCH  15  16
ATOM     16  N   UNL     1      -2.934  18.529   5.088  1.00  0.00    -0.267 N 
ATOM     17  C   UNL     1      -3.240  19.759   4.485  1.00  0.00     0.330 A 
ATOM     18  C   UNL     1      -1.588  18.225   4.861  1.00  0.00     0.165 A 
ATOM     19  O   UNL     1      -4.334  20.297   4.436  1.00  0.00    -0.248 OA
ATOM     20  N   UNL     1      -2.028  20.247   3.950  1.00  0.00    -0.292 N 
ATOM     21  C   UNL     1      -1.041  19.284   4.171  1.00  0.00     0.107 A 
ATOM     22  N   UNL     1      -0.943  17.120   5.232  1.00  0.00    -0.208 NA
ATOM     23  C   UNL     1       0.272  19.188   3.840  1.00  0.00     0.144 A 
ATOM     24  C   UNL     1       0.355  17.096   4.858  1.00  0.00     0.161 A 
ATOM     25  N   UNL     1       0.993  18.097   4.182  1.00  0.00    -0.234 NA
ATOM     26  C   UNL     1      -1.864  21.446   3.184  1.00  0.00     0.155 C 
BRANCH  24  27
ATOM     27  C   UNL     1       1.145  15.897   5.209  1.00  0.00     0.019 A 
ATOM     28  C   UNL     1       2.384  15.999   5.872  1.00  0.00     0.012 A 
ATOM     29  C   UNL     1       0.695  14.601   4.892  1.00  0.00     0.012 A 
ATOM     30  C   UNL     1       3.133  14.863   6.203  1.00  0.00     0.001 A 
ATOM     31  C   UNL     1       1.441  13.464   5.218  1.00  0.00     0.001 A 
ATOM     32  C   UNL     1       2.661  13.597   5.876  1.00  0.00     0.000 A 
ENDBRANCH  24  27
ENDBRANCH  15  16
ENDBRANCH   1  15
TORSDOF 7
ENDMDL
MODEL 3
REMARK VINA RESULT:    -6.543      4.634      8.508
REMARK INTER + INTRA:         -10.455
REMARK INTER:                  -7.656
REMARK INTRA:                  -2.799
REMARK UNBOUND:                -1.234
REMARK SMILES CCN(Cc1cc(Cl)ccc1Cl)C(=O)Cn1c(=O)n(C)c2cnc(-c3ccccc3)nc21
REMARK SMILES IDX 13 1 14 2 3 3 2 4 1 5 4 6 5 7 6 8 11 9 7 10 10 11 9 12 12 13
REMARK SMILES IDX 8 14 15 15 16 16 17 17 32 18 18 19 19 20 21 21 31 22 22 23
REMARK SMILES IDX 24 24 23 25 20 26 25 27 26 28 30 29 27 30 29 31 28 32
REMARK H PARENT
ROOT
ATOM      1  C   UNL     1       1.312  18.220   5.698  1.00  0.00     0.243 C 
ATOM      2  O   UNL     1       1.808  18.277   4.569  1.00  0.00    -0.273 OA
ENDROOT
BRANCH   1   3
ATOM      3  N   UNL     1      -0.061  18.001   5.885  1.00  0.00    -0.337 N 
BRANCH   3   4
ATOM      4  C   UNL     1      -0.975  19.069   6.309  1.00  0.00     0.116 C 
ATOM      5  C   UNL     1      -2.364  18.914   5.708  1.00  0.00     0.027 C 
ENDBRANCH   3   4
BRANCH   3   6
ATOM      6  C   UNL     1      -0.624  16.820   5.221  1.00  0.00     0.156 C 
BRANCH   6   7
ATOM      7  C   UNL     1      -0.276  15.505   5.881  1.00  0.00    -0.008 A 
ATOM      8  C   UNL     1       0.669  14.661   5.268  1.00  0.00     0.027 A 
ATOM      9  C   UNL     1      -0.861  15.090   7.090  1.00  0.00     0.046 A 
ATOM     10  C   UNL     1       1.011  13.437   5.846  1.00  0.00     0.041 A 
ATOM     11  C   UNL     1      -0.511  13.862   7.664  1.00  0.00     0.022 A 
ATOM     12  C   UNL     1       0.425  13.035   7.043  1.00  0.00     0.022 A 
ATOM     13  Cl  UNL     1      -2.029  16.053   7.921  1.00  0.00    -0.084 Cl
ATOM     14  Cl  UNL     1       2.163  12.420   5.074  1.00  0.00    -0.084 Cl
ENDBRANCH   6   7
ENDBRANCH   3   6
ENDBRANCH   1   3
BRANCH   1  15
ATOM     15  C   UNL     1       2.168  18.383   6.964  1.00  0.00     0.229 C 
BRANCH  15  16
ATOM     16  N   UNL     1       2.142  17.195   7.774  1.00  0.00    -0.267 N 
ATOM     17  C   UNL     1       1.476  17.054   9.001  1.00  0.00     0.330 A 
ATOM     18  C   UNL     1       3.011  16.115   7.593  1.00  0.00     0.165 A 
ATOM     19  O   UNL     1       0.692  17.844   9.502  1.00  0.00    -0.248 OA
ATOM     20  N   UNL     1       1.894  15.817   9.536  1.00  0.00    -0.292 N 
ATOM     21  C   UNL     1       2.847  15.274   8.671  1.00  0.00     0.107 A 
ATOM     22  N   UNL     1       3.850  15.923   6.576  1.00  0.00    -0.208 NA
ATOM     23  C   UNL     1       3.611  14.153   8.697  1.00  0.00     0.144 A 
ATOM     24  C   UNL     1       4.581  14.792   6.680  1.00  0.00     0.161 A 
ATOM     25  N   UNL     1       4.485  13.889   7.700  1.00  0.00    -0.234 NA
ATOM     26  C   UNL     1       1.523  15.278  10.811  1.00  0.00     0.155 C 
BRANCH  24  27
ATOM     27  C   UNL     1       5.555  14.507   5.604  1.00  0.00     0.019 A 
ATOM     28  C   UNL     1       5.858  13.188   5.214  1.00  0.00     0.012 A 
ATOM     29  C   UNL     1       6.225  15.544   4.926  1.00  0.00     0.012 A 
ATOM     30  C   UNL     1       6.782  12.919   4.198  1.00  0.00     0.001 A 
ATOM     31  C   UNL     1       7.151  15.280   3.912  1.00  0.00     0.001 A 
ATOM     32  C   UNL     1       7.428  13.965   3.548  1.00  0.00     0.000 A 
ENDBRANCH  24  27
ENDBRANCH  15  16
ENDBRANCH   1  15
TORSDOF 7
ENDMDL
MODEL 4
REMARK VINA RESULT:    -6.495      1.296      2.258
REMARK INTER + INTRA:         -10.387
REMARK INTER:                  -9.134
REMARK INTRA:                  -1.253
REMARK UNBOUND:                -1.234
REMARK SMILES CCN(Cc1cc(Cl)ccc1Cl)C(=O)Cn1c(=O)n(C)c2cnc(-c3ccccc3)nc21
REMARK SMILES IDX 13 1 14 2 3 3 2 4 1 5 4 6 5 7 6 8 11 9 7 10 10 11 9 12 12 13
REMARK SMILES IDX 8 14 15 15 16 16 17 17 32 18 18 19 19 20 21 21 31 22 22 23
REMARK SMILES IDX 24 24 23 25 20 26 25 27 26 28 30 29 27 30 29 31 28 32
REMARK H PARENT
ROOT
ATOM      1  C   UNL     1       8.476  13.644   3.880  1.00  0.00     0.243 C 
ATOM      2  O   UNL     1       9.643  14.009   4.049  1.00  0.00    -0.273 OA
ENDROOT
BRANCH   1   3
ATOM      3  N   UNL     1       7.651  14.249   2.920  1.00  0.00    -0.337 N 
BRANCH   3   4
ATOM      4  C   UNL     1       7.363  15.690   2.929  1.00  0.00     0.116 C 
ATOM      5  C   UNL     1       6.789  16.156   4.258  1.00  0.00     0.027 C 
ENDBRANCH   3   4
BRANCH   3   6
ATOM      6  C   UNL     1       7.457  13.504   1.672  1.00  0.00     0.156 C 
BRANCH   6   7
ATOM      7  C   UNL     1       7.999  14.193   0.440  1.00  0.00    -0.008 A 
ATOM      8  C   UNL     1       9.350  14.587   0.414  1.00  0.00     0.027 A 
ATOM      9  C   UNL     1       7.203  14.456  -0.688  1.00  0.00     0.046 A 
ATOM     10  C   UNL     1       9.883  15.229  -0.704  1.00  0.00     0.041 A 
ATOM     11  C   UNL     1       7.746  15.100  -1.807  1.00  0.00     0.022 A 
ATOM     12  C   UNL     1       9.086  15.487  -1.816  1.00  0.00     0.022 A 
ATOM     13  Cl  UNL     1       5.535  14.013  -0.756  1.00  0.00    -0.084 Cl
ATOM     14  Cl  UNL     1      11.535  15.707  -0.708  1.00  0.00    -0.084 Cl
ENDBRANCH   6   7
ENDBRANCH   3   6
ENDBRANCH   1   3
BRANCH   1  15
ATOM     15  C   UNL     1       7.858  12.506   4.708  1.00  0.00     0.229 C 
BRANCH  15  16
ATOM     16  N   UNL     1       7.690  12.885   6.084  1.00  0.00    -0.267 N 
ATOM     17  C   UNL     1       8.612  12.653   7.117  1.00  0.00     0.330 A 
ATOM     18  C   UNL     1       6.467  13.278   6.636  1.00  0.00     0.165 A 
ATOM     19  O   UNL     1       9.755  12.242   6.998  1.00  0.00    -0.248 OA
ATOM     20  N   UNL     1       7.951  12.993   8.317  1.00  0.00    -0.292 N 
ATOM     21  C   UNL     1       6.639  13.348   8.000  1.00  0.00     0.107 A 
ATOM     22  N   UNL     1       5.338  13.536   5.978  1.00  0.00    -0.208 NA
ATOM     23  C   UNL     1       5.558  13.710   8.737  1.00  0.00     0.144 A 
ATOM     24  C   UNL     1       4.307  13.879   6.781  1.00  0.00     0.161 A 
ATOM     25  N   UNL     1       4.377  13.988   8.141  1.00  0.00    -0.234 NA
ATOM     26  C   UNL     1       8.481  12.856   9.642  1.00  0.00     0.155 C 
BRANCH  24  27
ATOM     27  C   UNL     1       3.006  14.163   6.138  1.00  0.00     0.019 A 
ATOM     28  C   UNL     1       2.230  13.139   5.559  1.00  0.00     0.012 A 
ATOM     29  C   UNL     1       2.487  15.471   6.074  1.00  0.00     0.012 A 
ATOM     30  C   UNL     1       1.000  13.408   4.949  1.00  0.00     0.001 A 
ATOM     31  C   UNL     1       1.260  15.745   5.463  1.00  0.00     0.001 A 
ATOM     32  C   UNL     1       0.515  14.711   4.902  1.00  0.00     0.000 A 
ENDBRANCH  24  27
ENDBRANCH  15  16
ENDBRANCH   1  15
TORSDOF 7
ENDMDL
MODEL 5
REMARK VINA RESULT:    -6.346      1.940      3.378
REMARK INTER + INTRA:         -10.178
REMARK INTER:                  -7.955
REMARK INTRA:                  -2.223
REMARK UNBOUND:                -1.234
REMARK SMILES CCN(Cc1cc(Cl)ccc1Cl)C(=O)Cn1c(=O)n(C)c2cnc(-c3ccccc3)nc21
REMARK SMILES IDX 13 1 14 2 3 3 2 4 1 5 4 6 5 7 6 8 11 9 7 10 10 11 9 12 12 13
REMARK SMILES IDX 8 14 15 15 16 16 17 17 32 18 18 19 19 20 21 21 31 22 22 23
REMARK SMILES IDX 24 24 23 25 20 26 25 27 26 28 30 29 27 30 29 31 28 32
REMARK H PARENT
ROOT
ATOM      1  C   UNL     1       8.850  12.934   2.837  1.00  0.00     0.243 C 
ATOM      2  O   UNL     1      10.035  12.606   2.732  1.00  0.00    -0.273 OA
ENDROOT
BRANCH   1   3
ATOM      3  N   UNL     1       8.319  14.006   2.104  1.00  0.00    -0.337 N 
BRANCH   3   4
ATOM      4  C   UNL     1       7.020  13.922   1.422  1.00  0.00     0.116 C 
ATOM      5  C   UNL     1       7.136  14.171  -0.074  1.00  0.00     0.027 C 
ENDBRANCH   3   4
BRANCH   3   6
ATOM      6  C   UNL     1       8.866  15.332   2.407  1.00  0.00     0.156 C 
BRANCH   6   7
ATOM      7  C   UNL     1       8.432  15.899   3.740  1.00  0.00    -0.008 A 
ATOM      8  C   UNL     1       7.110  16.360   3.890  1.00  0.00     0.027 A 
ATOM      9  C   UNL     1       9.300  15.984   4.841  1.00  0.00     0.046 A 
ATOM     10  C   UNL     1       6.677  16.894   5.104  1.00  0.00     0.041 A 
ATOM     11  C   UNL     1       8.857  16.519   6.057  1.00  0.00     0.022 A 
ATOM     12  C   UNL     1       7.545  16.975   6.189  1.00  0.00     0.022 A 
ATOM     13  Cl  UNL     1      10.939  15.446   4.760  1.00  0.00    -0.084 Cl
ATOM     14  Cl  UNL     1       5.059  17.457   5.260  1.00  0.00    -0.084 Cl
ENDBRANCH   6   7
ENDBRANCH   3   6
ENDBRANCH   1   3
BRANCH   1  15
ATOM     15  C   UNL     1       7.887  12.188   3.774  1.00  0.00     0.229 C 
BRANCH  15  16
ATOM     16  N   UNL     1       7.943  12.710   5.112  1.00  0.00    -0.267 N 
ATOM     17  C   UNL     1       9.032  12.599   5.990  1.00  0.00     0.330 A 
ATOM     18  C   UNL     1       6.820  13.144   5.822  1.00  0.00     0.165 A 
ATOM     19  O   UNL     1      10.150  12.192   5.719  1.00  0.00    -0.248 OA
ATOM     20  N   UNL     1       8.575  13.057   7.244  1.00  0.00    -0.292 N 
ATOM     21  C   UNL     1       7.217  13.361   7.122  1.00  0.00     0.107 A 
ATOM     22  N   UNL     1       5.588  13.317   5.345  1.00  0.00    -0.208 NA
ATOM     23  C   UNL     1       6.267  13.786   7.993  1.00  0.00     0.144 A 
ATOM     24  C   UNL     1       4.698  13.731   6.274  1.00  0.00     0.161 A 
ATOM     25  N   UNL     1       4.994  13.984   7.583  1.00  0.00    -0.234 NA
ATOM     26  C   UNL     1       9.325  13.068   8.465  1.00  0.00     0.155 C 
BRANCH  24  27
ATOM     27  C   UNL     1       3.299  13.929   5.838  1.00  0.00     0.019 A 
ATOM     28  C   UNL     1       2.499  12.849   5.414  1.00  0.00     0.012 A 
ATOM     29  C   UNL     1       2.706  15.206   5.826  1.00  0.00     0.012 A 
ATOM     30  C   UNL     1       1.175  13.037   4.999  1.00  0.00     0.001 A 
ATOM     31  C   UNL     1       1.385  15.399   5.410  1.00  0.00     0.001 A 
ATOM     32  C   UNL     1       0.620  14.312   4.998  1.00  0.00     0.000 A 
ENDBRANCH  24  27
ENDBRANCH  15  16
ENDBRANCH   1  15
TORSDOF 7
ENDMDL
MODEL 6
REMARK VINA RESULT:    -6.302      8.098     10.749
REMARK INTER + INTRA:         -10.116
REMARK INTER:                  -7.555
REMARK INTRA:                  -2.561
REMARK UNBOUND:                -1.234
REMARK SMILES CCN(Cc1cc(Cl)ccc1Cl)C(=O)Cn1c(=O)n(C)c2cnc(-c3ccccc3)nc21
REMARK SMILES IDX 13 1 14 2 3 3 2 4 1 5 4 6 5 7 6 8 11 9 7 10 10 11 9 12 12 13
REMARK SMILES IDX 8 14 15 15 16 16 17 17 32 18 18 19 19 20 21 21 31 22 22 23
REMARK SMILES IDX 24 24 23 25 20 26 25 27 26 28 30 29 27 30 29 31 28 32
REMARK H PARENT
ROOT
ATOM      1  C   UNL     1      -3.794  18.625   6.760  1.00  0.00     0.243 C 
ATOM      2  O   UNL     1      -4.004  19.779   7.144  1.00  0.00    -0.273 OA
ENDROOT
BRANCH   1   3
ATOM      3  N   UNL     1      -3.088  18.364   5.576  1.00  0.00    -0.337 N 
BRANCH   3   4
ATOM      4  C   UNL     1      -3.592  17.443   4.549  1.00  0.00     0.116 C 
ATOM      5  C   UNL     1      -4.861  17.956   3.885  1.00  0.00     0.027 C 
ENDBRANCH   3   4
BRANCH   3   6
ATOM      6  C   UNL     1      -2.080  19.357   5.192  1.00  0.00     0.156 C 
BRANCH   6   7
ATOM      7  C   UNL     1      -0.650  18.915   5.409  1.00  0.00    -0.008 A 
ATOM      8  C   UNL     1      -0.158  18.812   6.724  1.00  0.00     0.027 A 
ATOM      9  C   UNL     1       0.211  18.600   4.344  1.00  0.00     0.046 A 
ATOM     10  C   UNL     1       1.158  18.413   6.961  1.00  0.00     0.041 A 
ATOM     11  C   UNL     1       1.529  18.198   4.592  1.00  0.00     0.022 A 
ATOM     12  C   UNL     1       2.004  18.104   5.900  1.00  0.00     0.022 A 
ATOM     13  Cl  UNL     1      -0.296  18.693   2.696  1.00  0.00    -0.084 Cl
ATOM     14  Cl  UNL     1       1.738  18.303   8.577  1.00  0.00    -0.084 Cl
ENDBRANCH   6   7
ENDBRANCH   3   6
ENDBRANCH   1   3
BRANCH   1  15
ATOM     15  C   UNL     1      -4.291  17.407   7.555  1.00  0.00     0.229 C 
BRANCH  15  16
ATOM     16  N   UNL     1      -3.540  17.228   8.768  1.00  0.00    -0.267 N 
ATOM     17  C   UNL     1      -3.740  17.929   9.967  1.00  0.00     0.330 A 
ATOM     18  C   UNL     1      -2.326  16.538   8.833  1.00  0.00     0.165 A 
ATOM     19  O   UNL     1      -4.665  18.681  10.229  1.00  0.00    -0.248 OA
ATOM     20  N   UNL     1      -2.658  17.589  10.807  1.00  0.00    -0.292 N 
ATOM     21  C   UNL     1      -1.798  16.759  10.085  1.00  0.00     0.107 A 
ATOM     22  N   UNL     1      -1.769  15.804   7.871  1.00  0.00    -0.208 NA
ATOM     23  C   UNL     1      -0.602  16.177  10.359  1.00  0.00     0.144 A 
ATOM     24  C   UNL     1      -0.578  15.268   8.216  1.00  0.00     0.161 A 
ATOM     25  N   UNL     1       0.024  15.417   9.433  1.00  0.00    -0.234 NA
ATOM     26  C   UNL     1      -2.404  18.117  12.115  1.00  0.00     0.155 C 
BRANCH  24  27
ATOM     27  C   UNL     1       0.124  14.453   7.201  1.00  0.00     0.019 A 
ATOM     28  C   UNL     1       0.670  13.193   7.516  1.00  0.00     0.012 A 
ATOM     29  C   UNL     1       0.281  14.905   5.876  1.00  0.00     0.012 A 
ATOM     30  C   UNL     1       1.337  12.424   6.555  1.00  0.00     0.001 A 
ATOM     31  C   UNL     1       0.948  14.141   4.914  1.00  0.00     0.001 A 
ATOM     32  C   UNL     1       1.475  12.898   5.255  1.00  0.00     0.000 A 
ENDBRANCH  24  27
ENDBRANCH  15  16
ENDBRANCH   1  15
TORSDOF 7
ENDMDL
MODEL 7
REMARK VINA RESULT:    -6.263      3.086      7.431
REMARK INTER + INTRA:         -10.061
REMARK INTER:                  -8.950
REMARK INTRA:                  -1.111
REMARK UNBOUND:                -1.234
REMARK SMILES CCN(Cc1cc(Cl)ccc1Cl)C(=O)Cn1c(=O)n(C)c2cnc(-c3ccccc3)nc21
REMARK SMILES IDX 13 1 14 2 3 3 2 4 1 5 4 6 5 7 6 8 11 9 7 10 10 11 9 12 12 13
REMARK SMILES IDX 8 14 15 15 16 16 17 17 32 18 18 19 19 20 21 21 31 22 22 23
REMARK SMILES IDX 24 24 23 25 20 26 25 27 26 28 30 29 27 30 29 31 28 32
REMARK H PARENT
ROOT
ATOM      1  C   UNL     1       5.604  14.532   6.019  1.00  0.00     0.243 C 
ATOM      2  O   UNL     1       6.537  15.334   5.923  1.00  0.00    -0.273 OA
ENDROOT
BRANCH   1   3
ATOM      3  N   UNL     1       4.471  14.814   6.797  1.00  0.00    -0.337 N 
BRANCH   3   4
ATOM      4  C   UNL     1       4.557  15.086   8.237  1.00  0.00     0.116 C 
ATOM      5  C   UNL     1       4.798  13.823   9.050  1.00  0.00     0.027 C 
ENDBRANCH   3   4
BRANCH   3   6
ATOM      6  C   UNL     1       3.284  15.270   6.067  1.00  0.00     0.156 C 
BRANCH   6   7
ATOM      7  C   UNL     1       1.971  14.796   6.648  1.00  0.00    -0.008 A 
ATOM      8  C   UNL     1       1.289  15.620   7.563  1.00  0.00     0.027 A 
ATOM      9  C   UNL     1       1.400  13.557   6.308  1.00  0.00     0.046 A 
ATOM     10  C   UNL     1       0.078  15.212   8.123  1.00  0.00     0.041 A 
ATOM     11  C   UNL     1       0.183  13.157   6.872  1.00  0.00     0.022 A 
ATOM     12  C   UNL     1      -0.479  13.984   7.781  1.00  0.00     0.022 A 
ATOM     13  Cl  UNL     1       2.155  12.474   5.195  1.00  0.00    -0.084 Cl
ATOM     14  Cl  UNL     1      -0.732  16.235   9.244  1.00  0.00    -0.084 Cl
ENDBRANCH   6   7
ENDBRANCH   3   6
ENDBRANCH   1   3
BRANCH   1  15
ATOM     15  C   UNL     1       5.627  13.178   5.291  1.00  0.00     0.229 C 
BRANCH  15  16
ATOM     16  N   UNL     1       6.962  12.654   5.192  1.00  0.00    -0.267 N 
ATOM     17  C   UNL     1       7.718  12.132   6.252  1.00  0.00     0.330 A 
ATOM     18  C   UNL     1       7.794  12.857   4.087  1.00  0.00     0.165 A 
ATOM     19  O   UNL     1       7.324  11.892   7.382  1.00  0.00    -0.248 OA
ATOM     20  N   UNL     1       9.022  11.939   5.748  1.00  0.00    -0.292 N 
ATOM     21  C   UNL     1       9.049  12.411   4.434  1.00  0.00     0.107 A 
ATOM     22  N   UNL     1       7.452  13.386   2.913  1.00  0.00    -0.208 NA
ATOM     23  C   UNL     1      10.023  12.523   3.495  1.00  0.00     0.144 A 
ATOM     24  C   UNL     1       8.477  13.474   2.037  1.00  0.00     0.161 A 
ATOM     25  N   UNL     1       9.752  13.050   2.279  1.00  0.00    -0.234 NA
ATOM     26  C   UNL     1      10.158  11.482   6.493  1.00  0.00     0.155 C 
BRANCH  24  27
ATOM     27  C   UNL     1       8.194  14.069   0.713  1.00  0.00     0.019 A 
ATOM     28  C   UNL     1       9.173  14.798   0.008  1.00  0.00     0.012 A 
ATOM     29  C   UNL     1       6.933  13.936   0.101  1.00  0.00     0.012 A 
ATOM     30  C   UNL     1       8.904  15.363  -1.244  1.00  0.00     0.001 A 
ATOM     31  C   UNL     1       6.660  14.501  -1.149  1.00  0.00     0.001 A 
ATOM     32  C   UNL     1       7.648  15.214  -1.821  1.00  0.00     0.000 A 
ENDBRANCH  24  27
ENDBRANCH  15  16
ENDBRANCH   1  15
TORSDOF 7
ENDMDL
MODEL 8
REMARK VINA RESULT:    -6.240      7.771     10.265
REMARK INTER + INTRA:         -10.028
REMARK INTER:                  -6.600
REMARK INTRA:                  -3.428
REMARK UNBOUND:                -1.234
REMARK SMILES CCN(Cc1cc(Cl)ccc1Cl)C(=O)Cn1c(=O)n(C)c2cnc(-c3ccccc3)nc21
REMARK SMILES IDX 13 1 14 2 3 3 2 4 1 5 4 6 5 7 6 8 11 9 7 10 10 11 9 12 12 13
REMARK SMILES IDX 8 14 15 15 16 16 17 17 32 18 18 19 19 20 21 21 31 22 22 23
REMARK SMILES IDX 24 24 23 25 20 26 25 27 26 28 30 29 27 30 29 31 28 32
REMARK H PARENT
ROOT
ATOM      1  C   UNL     1      -1.905  19.596   4.442  1.00  0.00     0.243 C 
ATOM      2  O   UNL     1      -2.085  20.812   4.550  1.00  0.00    -0.273 OA
ENDROOT
BRANCH   1   3
ATOM      3  N   UNL     1      -0.660  19.070   4.067  1.00  0.00    -0.337 N 
BRANCH   3   4
ATOM      4  C   UNL     1      -0.473  18.304   2.828  1.00  0.00     0.116 C 
ATOM      5  C   UNL     1       0.112  19.151   1.708  1.00  0.00     0.027 C 
ENDBRANCH   3   4
BRANCH   3   6
ATOM      6  C   UNL     1       0.516  19.677   4.698  1.00  0.00     0.156 C 
BRANCH   6   7
ATOM      7  C   UNL     1       1.162  18.827   5.769  1.00  0.00    -0.008 A 
ATOM      8  C   UNL     1       2.083  17.832   5.390  1.00  0.00     0.027 A 
ATOM      9  C   UNL     1       0.879  18.992   7.135  1.00  0.00     0.046 A 
ATOM     10  C   UNL     1       2.695  17.026   6.351  1.00  0.00     0.041 A 
ATOM     11  C   UNL     1       1.498  18.180   8.093  1.00  0.00     0.022 A 
ATOM     12  C   UNL     1       2.407  17.196   7.702  1.00  0.00     0.022 A 
ATOM     13  Cl  UNL     1      -0.235  20.184   7.703  1.00  0.00    -0.084 Cl
ATOM     14  Cl  UNL     1       3.811  15.812   5.862  1.00  0.00    -0.084 Cl
ENDBRANCH   6   7
ENDBRANCH   3   6
ENDBRANCH   1   3
BRANCH   1  15
ATOM     15  C   UNL     1      -3.032  18.587   4.715  1.00  0.00     0.229 C 
BRANCH  15  16
ATOM     16  N   UNL     1      -3.180  18.329   6.121  1.00  0.00    -0.267 N 
ATOM     17  C   UNL     1      -3.857  19.147   7.038  1.00  0.00     0.330 A 
ATOM     18  C   UNL     1      -2.428  17.378   6.818  1.00  0.00     0.165 A 
ATOM     19  O   UNL     1      -4.555  20.114   6.778  1.00  0.00    -0.248 OA
ATOM     20  N   UNL     1      -3.570  18.626   8.318  1.00  0.00    -0.292 N 
ATOM     21  C   UNL     1      -2.678  17.563   8.159  1.00  0.00     0.107 A 
ATOM     22  N   UNL     1      -1.614  16.462   6.296  1.00  0.00    -0.208 NA
ATOM     23  C   UNL     1      -2.034  16.738   9.023  1.00  0.00     0.144 A 
ATOM     24  C   UNL     1      -1.004  15.687   7.220  1.00  0.00     0.161 A 
ATOM     25  N   UNL     1      -1.192  15.783   8.569  1.00  0.00    -0.234 NA
ATOM     26  C   UNL     1      -3.994  19.178   9.570  1.00  0.00     0.155 C 
BRANCH  24  27
ATOM     27  C   UNL     1      -0.064  14.655   6.732  1.00  0.00     0.019 A 
ATOM     28  C   UNL     1       0.253  14.533   5.364  1.00  0.00     0.012 A 
ATOM     29  C   UNL     1       0.552  13.746   7.614  1.00  0.00     0.012 A 
ATOM     30  C   UNL     1       1.140  13.554   4.903  1.00  0.00     0.001 A 
ATOM     31  C   UNL     1       1.438  12.765   7.157  1.00  0.00     0.001 A 
ATOM     32  C   UNL     1       1.732  12.671   5.800  1.00  0.00     0.000 A 
ENDBRANCH  24  27
ENDBRANCH  15  16
ENDBRANCH   1  15
TORSDOF 7
ENDMDL
MODEL 9
REMARK VINA RESULT:    -6.239      7.344     10.459
REMARK INTER + INTRA:         -10.026
REMARK INTER:                  -6.749
REMARK INTRA:                  -3.277
REMARK UNBOUND:                -1.234
REMARK SMILES CCN(Cc1cc(Cl)ccc1Cl)C(=O)Cn1c(=O)n(C)c2cnc(-c3ccccc3)nc21
REMARK SMILES IDX 13 1 14 2 3 3 2 4 1 5 4 6 5 7 6 8 11 9 7 10 10 11 9 12 12 13
REMARK SMILES IDX 8 14 15 15 16 16 17 17 32 18 18 19 19 20 21 21 31 22 22 23
REMARK SMILES IDX 24 24 23 25 20 26 25 27 26 28 30 29 27 30 29 31 28 32
REMARK H PARENT
ROOT
ATOM      1  C   UNL     1       0.334  20.029   8.097  1.00  0.00     0.243 C 
ATOM      2  O   UNL     1      -0.649  20.510   8.667  1.00  0.00    -0.273 OA
ENDROOT
BRANCH   1   3
ATOM      3  N   UNL     1       1.134  19.054   8.713  1.00  0.00    -0.337 N 
BRANCH   3   4
ATOM      4  C   UNL     1       2.597  19.170   8.782  1.00  0.00     0.116 C 
ATOM      5  C   UNL     1       3.125  18.985  10.197  1.00  0.00     0.027 C 
ENDBRANCH   3   4
BRANCH   3   6
ATOM      6  C   UNL     1       0.456  18.166   9.662  1.00  0.00     0.156 C 
BRANCH   6   7
ATOM      7  C   UNL     1       0.257  16.752   9.165  1.00  0.00    -0.008 A 
ATOM      8  C   UNL     1       1.264  15.797   9.399  1.00  0.00     0.027 A 
ATOM      9  C   UNL     1      -0.900  16.351   8.477  1.00  0.00     0.046 A 
ATOM     10  C   UNL     1       1.117  14.483   8.950  1.00  0.00     0.041 A 
ATOM     11  C   UNL     1      -1.041  15.031   8.032  1.00  0.00     0.022 A 
ATOM     12  C   UNL     1      -0.032  14.096   8.268  1.00  0.00     0.022 A 
ATOM     13  Cl  UNL     1      -2.193  17.446   8.141  1.00  0.00    -0.084 Cl
ATOM     14  Cl  UNL     1       2.365  13.337   9.242  1.00  0.00    -0.084 Cl
ENDBRANCH   6   7
ENDBRANCH   3   6
ENDBRANCH   1   3
BRANCH   1  15
ATOM     15  C   UNL     1       0.739  20.465   6.680  1.00  0.00     0.229 C 
BRANCH  15  16
ATOM     16  N   UNL     1      -0.197  19.995   5.696  1.00  0.00    -0.267 N 
ATOM     17  C   UNL     1      -1.343  20.678   5.262  1.00  0.00     0.330 A 
ATOM     18  C   UNL     1      -0.250  18.672   5.248  1.00  0.00     0.165 A 
ATOM     19  O   UNL     1      -1.650  21.830   5.522  1.00  0.00    -0.248 OA
ATOM     20  N   UNL     1      -2.067  19.766   4.464  1.00  0.00    -0.292 N 
ATOM     21  C   UNL     1      -1.393  18.543   4.490  1.00  0.00     0.107 A 
ATOM     22  N   UNL     1       0.629  17.704   5.502  1.00  0.00    -0.208 NA
ATOM     23  C   UNL     1      -1.643  17.319   3.958  1.00  0.00     0.144 A 
ATOM     24  C   UNL     1       0.306  16.515   4.946  1.00  0.00     0.161 A 
ATOM     25  N   UNL     1      -0.796  16.287   4.171  1.00  0.00    -0.234 NA
ATOM     26  C   UNL     1      -3.343  20.001   3.856  1.00  0.00     0.155 C 
BRANCH  24  27
ATOM     27  C   UNL     1       1.215  15.375   5.193  1.00  0.00     0.019 A 
ATOM     28  C   UNL     1       2.511  15.566   5.712  1.00  0.00     0.012 A 
ATOM     29  C   UNL     1       0.826  14.051   4.917  1.00  0.00     0.012 A 
ATOM     30  C   UNL     1       3.373  14.487   5.943  1.00  0.00     0.001 A 
ATOM     31  C   UNL     1       1.684  12.971   5.144  1.00  0.00     0.001 A 
ATOM     32  C   UNL     1       2.958  13.191   5.659  1.00  0.00     0.000 A 
ENDBRANCH  24  27
ENDBRANCH  15  16
ENDBRANCH   1  15
TORSDOF 7
ENDMDL
MODEL 10
REMARK VINA RESULT:    -6.236      2.823      6.741
REMARK INTER + INTRA:         -10.023
REMARK INTER:                  -8.554
REMARK INTRA:                  -1.468
REMARK UNBOUND:                -1.234
REMARK SMILES CCN(Cc1cc(Cl)ccc1Cl)C(=O)Cn1c(=O)n(C)c2cnc(-c3ccccc3)nc21
REMARK SMILES IDX 13 1 14 2 3 3 2 4 1 5 4 6 5 7 6 8 11 9 7 10 10 11 9 12 12 13
REMARK SMILES IDX 8 14 15 15 16 16 17 17 32 18 18 19 19 20 21 21 31 22 22 23
REMARK SMILES IDX 24 24 23 25 20 26 25 27 26 28 30 29 27 30 29 31 28 32
REMARK H PARENT
ROOT
ATOM      1  C   UNL     1       6.134  14.574   6.303  1.00  0.00     0.243 C 
ATOM      2  O   UNL     1       6.758  15.455   5.705  1.00  0.00    -0.273 OA
ENDROOT
BRANCH   1   3
ATOM      3  N   UNL     1       5.521  14.822   7.541  1.00  0.00    -0.337 N 
BRANCH   3   4
ATOM      4  C   UNL     1       6.194  14.549   8.817  1.00  0.00     0.116 C 
ATOM      5  C   UNL     1       5.512  13.440   9.605  1.00  0.00     0.027 C 
ENDBRANCH   3   4
BRANCH   3   6
ATOM      6  C   UNL     1       4.397  15.763   7.529  1.00  0.00     0.156 C 
BRANCH   6   7
ATOM      7  C   UNL     1       3.142  15.232   6.874  1.00  0.00    -0.008 A 
ATOM      8  C   UNL     1       2.654  13.966   7.252  1.00  0.00     0.027 A 
ATOM      9  C   UNL     1       2.437  15.956   5.897  1.00  0.00     0.046 A 
ATOM     10  C   UNL     1       1.502  13.442   6.665  1.00  0.00     0.041 A 
ATOM     11  C   UNL     1       1.280  15.424   5.314  1.00  0.00     0.022 A 
ATOM     12  C   UNL     1       0.812  14.167   5.698  1.00  0.00     0.022 A 
ATOM     13  Cl  UNL     1       2.951  17.516   5.364  1.00  0.00    -0.084 Cl
ATOM     14  Cl  UNL     1       0.932  11.891   7.140  1.00  0.00    -0.084 Cl
ENDBRANCH   6   7
ENDBRANCH   3   6
ENDBRANCH   1   3
BRANCH   1  15
ATOM     15  C   UNL     1       5.987  13.157   5.727  1.00  0.00     0.229 C 
BRANCH  15  16
ATOM     16  N   UNL     1       7.268  12.549   5.490  1.00  0.00    -0.267 N 
ATOM     17  C   UNL     1       8.087  11.956   6.464  1.00  0.00     0.330 A 
ATOM     18  C   UNL     1       8.001  12.720   4.312  1.00  0.00     0.165 A 
ATOM     19  O   UNL     1       7.789  11.719   7.623  1.00  0.00    -0.248 OA
ATOM     20  N   UNL     1       9.320  11.689   5.831  1.00  0.00    -0.292 N 
ATOM     21  C   UNL     1       9.251  12.184   4.527  1.00  0.00     0.107 A 
ATOM     22  N   UNL     1       7.583  13.294   3.185  1.00  0.00    -0.208 NA
ATOM     23  C   UNL     1      10.134  12.252   3.499  1.00  0.00     0.144 A 
ATOM     24  C   UNL     1       8.521  13.332   2.213  1.00  0.00     0.161 A 
ATOM     25  N   UNL     1       9.783  12.821   2.323  1.00  0.00    -0.234 NA
ATOM     26  C   UNL     1      10.489  11.143   6.454  1.00  0.00     0.155 C 
BRANCH  24  27
ATOM     27  C   UNL     1       8.152  13.972   0.932  1.00  0.00     0.019 A 
ATOM     28  C   UNL     1       9.102  14.662   0.152  1.00  0.00     0.012 A 
ATOM     29  C   UNL     1       6.834  13.922   0.438  1.00  0.00     0.012 A 
ATOM     30  C   UNL     1       8.751  15.270  -1.059  1.00  0.00     0.001 A 
ATOM     31  C   UNL     1       6.480  14.530  -0.770  1.00  0.00     0.001 A 
ATOM     32  C   UNL     1       7.441  15.203  -1.519  1.00  0.00     0.000 A 
ENDBRANCH  24  27
ENDBRANCH  15  16
ENDBRANCH   1  15
TORSDOF 7
ENDMDL
