MODEL 1
REMARK VINA RESULT:    -6.744      0.000      0.000
REMARK INTER + INTRA:         -11.642
REMARK INTER:                  -9.897
REMARK INTRA:                  -1.745
REMARK UNBOUND:                -1.745
REMARK SMILES CCN(Cc1cc(F)ccc1C(F)(F)F)C(=O)Cn1c(=O)n(C)c2cnc(-c3ccccc3)nc21
REMARK SMILES IDX 3 1 2 2 1 3 16 4 17 5 18 6 19 7 20 8 35 9 21 10 22 11 24 12
REMARK SMILES IDX 34 13 25 14 27 15 26 16 23 17 28 18 29 19 33 20 30 21 32 22
REMARK SMILES IDX 31 23 4 24 5 25 6 26 11 27 7 28 10 29 9 30 8 31 12 32 13 33
REMARK SMILES IDX 14 34 15 35
REMARK H PARENT
ROOT
ATOM      1  N   UNL     1       8.154  14.250   2.511  1.00  0.00    -0.337 N 
ENDROOT
BRANCH   1   2
ATOM      2  C   UNL     1       8.353  15.511   3.233  1.00  0.00     0.116 C 
ATOM      3  C   UNL     1       7.059  16.118   3.752  1.00  0.00     0.027 C 
ENDBRANCH   1   2
BRANCH   1   4
ATOM      4  C   UNL     1       8.672  13.020   2.918  1.00  0.00     0.243 C 
ATOM      5  O   UNL     1       9.786  12.636   2.544  1.00  0.00    -0.273 OA
BRANCH   4   6
ATOM      6  C   UNL     1       7.856  12.141   3.875  1.00  0.00     0.229 C 
BRANCH   6   7
ATOM      7  N   UNL     1       7.880  12.568   5.250  1.00  0.00    -0.267 N 
ATOM      8  C   UNL     1       8.970  12.475   6.132  1.00  0.00     0.330 A 
ATOM      9  C   UNL     1       6.765  13.038   5.950  1.00  0.00     0.165 A 
ATOM     10  O   UNL     1      10.093  12.083   5.863  1.00  0.00    -0.248 OA
ATOM     11  N   UNL     1       8.507  12.934   7.382  1.00  0.00    -0.292 N 
ATOM     12  C   UNL     1       7.159  13.265   7.250  1.00  0.00     0.107 A 
ATOM     13  N   UNL     1       5.543  13.240   5.470  1.00  0.00    -0.208 NA
ATOM     14  C   UNL     1       6.216  13.737   8.107  1.00  0.00     0.144 A 
ATOM     15  C   UNL     1       4.662  13.715   6.376  1.00  0.00     0.161 A 
ATOM     16  N   UNL     1       4.954  13.971   7.684  1.00  0.00    -0.234 NA
ATOM     17  C   UNL     1       9.270  13.008   8.594  1.00  0.00     0.155 C 
BRANCH  15  18
ATOM     18  C   UNL     1       3.285  13.983   5.910  1.00  0.00     0.019 A 
ATOM     19  C   UNL     1       2.427  12.943   5.505  1.00  0.00     0.012 A 
ATOM     20  C   UNL     1       2.772  15.295   5.856  1.00  0.00     0.012 A 
ATOM     21  C   UNL     1       1.123  13.199   5.066  1.00  0.00     0.001 A 
ATOM     22  C   UNL     1       1.469  15.554   5.418  1.00  0.00     0.001 A 
ATOM     23  C   UNL     1       0.645  14.505   5.023  1.00  0.00     0.000 A 
ENDBRANCH  15  18
ENDBRANCH   6   7
ENDBRANCH   4   6
ENDBRANCH   1   4
BRANCH   1  24
ATOM     24  C   UNL     1       7.435  14.304   1.235  1.00  0.00     0.155 C 
BRANCH  24  25
ATOM     25  C   UNL     1       8.147  15.111   0.163  1.00  0.00    -0.013 A 
ATOM     26  C   UNL     1       9.506  14.842  -0.089  1.00  0.00     0.045 A 
ATOM     27  C   UNL     1       7.495  16.107  -0.609  1.00  0.00     0.061 A 
ATOM     28  C   UNL     1      10.206  15.553  -1.056  1.00  0.00     0.123 A 
ATOM     29  C   UNL     1       8.232  16.813  -1.583  1.00  0.00     0.016 A 
ATOM     30  C   UNL     1       9.582  16.539  -1.804  1.00  0.00     0.040 A 
ATOM     31  F   UNL     1      11.499  15.283  -1.271  1.00  0.00    -0.207 F 
BRANCH  27  32
ATOM     32  C   UNL     1       6.030  16.439  -0.422  1.00  0.00     0.416 C 
ATOM     33  F   UNL     1       5.761  16.936   0.817  1.00  0.00    -0.166 F 
ATOM     34  F   UNL     1       5.202  15.368  -0.577  1.00  0.00    -0.166 F 
ATOM     35  F   UNL     1       5.589  17.373  -1.308  1.00  0.00    -0.166 F 
ENDBRANCH  27  32
ENDBRANCH  24  25
ENDBRANCH   1  24
TORSDOF 8
ENDMDL
MODEL 2
REMARK VINA RESULT:    -6.742      1.506      2.186
REMARK INTER + INTRA:         -11.640
REMARK INTER:                 -10.427
REMARK INTRA:                  -1.213
REMARK UNBOUND:                -1.745
REMARK SMILES CCN(Cc1cc(F)ccc1C(F)(F)F)C(=O)Cn1c(=O)n(C)c2cnc(-c3ccccc3)nc21
REMARK SMILES IDX 3 1 2 2 1 3 16 4 17 5 18 6 19 7 20 8 35 9 21 10 22 11 24 12
REMARK SMILES IDX 34 13 25 14 27 15 26 16 23 17 28 18 29 19 33 20 30 21 32 22
REMARK SMILES IDX 31 23 4 24 5 25 6 26 11 27 7 28 10 29 9 30 8 31 12 32 13 33
REMARK SMILES IDX 14 34 15 35
REMARK H PARENT
ROOT
ATOM      1  N   UNL     1       8.211  14.642   2.268  1.00  0.00    -0.337 N 
ENDROOT
BRANCH   1   2
ATOM      2  C   UNL     1       7.598  15.539   3.253  1.00  0.00     0.116 C 
ATOM      3  C   UNL     1       8.613  16.226   4.154  1.00  0.00     0.027 C 
ENDBRANCH   1   2
BRANCH   1   4
ATOM      4  C   UNL     1       8.669  13.356   2.552  1.00  0.00     0.243 C 
ATOM      5  O   UNL     1       9.758  12.953   2.126  1.00  0.00    -0.273 OA
BRANCH   4   6
ATOM      6  C   UNL     1       7.820  12.433   3.436  1.00  0.00     0.229 C 
BRANCH   6   7
ATOM      7  N   UNL     1       7.885  12.727   4.845  1.00  0.00    -0.267 N 
ATOM      8  C   UNL     1       9.008  12.575   5.676  1.00  0.00     0.330 A 
ATOM      9  C   UNL     1       6.787  13.101   5.624  1.00  0.00     0.165 A 
ATOM     10  O   UNL     1      10.128  12.237   5.332  1.00  0.00    -0.248 OA
ATOM     11  N   UNL     1       8.581  12.900   6.979  1.00  0.00    -0.292 N 
ATOM     12  C   UNL     1       7.222  13.211   6.926  1.00  0.00     0.107 A 
ATOM     13  N   UNL     1       5.544  13.319   5.207  1.00  0.00    -0.208 NA
ATOM     14  C   UNL     1       6.302  13.575   7.856  1.00  0.00     0.144 A 
ATOM     15  C   UNL     1       4.687  13.684   6.184  1.00  0.00     0.161 A 
ATOM     16  N   UNL     1       5.021  13.819   7.500  1.00  0.00    -0.234 NA
ATOM     17  C   UNL     1       9.385  12.875   8.167  1.00  0.00     0.155 C 
BRANCH  15  18
ATOM     18  C   UNL     1       3.289  13.963   5.794  1.00  0.00     0.019 A 
ATOM     19  C   UNL     1       2.418  12.936   5.382  1.00  0.00     0.012 A 
ATOM     20  C   UNL     1       2.767  15.273   5.822  1.00  0.00     0.012 A 
ATOM     21  C   UNL     1       1.095  13.202   5.015  1.00  0.00     0.001 A 
ATOM     22  C   UNL     1       1.445  15.542   5.455  1.00  0.00     0.001 A 
ATOM     23  C   UNL     1       0.609  14.506   5.051  1.00  0.00     0.000 A 
ENDBRANCH  15  18
ENDBRANCH   6   7
ENDBRANCH   4   6
ENDBRANCH   1   4
BRANCH   1  24
ATOM     24  C   UNL     1       8.431  15.167   0.916  1.00  0.00     0.155 C 
BRANCH  24  25
ATOM     25  C   UNL     1       7.347  16.121   0.444  1.00  0.00    -0.013 A 
ATOM     26  C   UNL     1       7.503  17.497   0.704  1.00  0.00     0.045 A 
ATOM     27  C   UNL     1       6.199  15.688  -0.267  1.00  0.00     0.061 A 
ATOM     28  C   UNL     1       6.540  18.412   0.297  1.00  0.00     0.123 A 
ATOM     29  C   UNL     1       5.238  16.641  -0.666  1.00  0.00     0.016 A 
ATOM     30  C   UNL     1       5.407  17.997  -0.383  1.00  0.00     0.040 A 
ATOM     31  F   UNL     1       6.708  19.713   0.565  1.00  0.00    -0.207 F 
BRANCH  27  32
ATOM     32  C   UNL     1       5.968  14.232  -0.612  1.00  0.00     0.416 C 
ATOM     33  F   UNL     1       6.776  13.800  -1.620  1.00  0.00    -0.166 F 
ATOM     34  F   UNL     1       4.697  13.960  -1.018  1.00  0.00    -0.166 F 
ATOM     35  F   UNL     1       6.202  13.402   0.441  1.00  0.00    -0.166 F 
ENDBRANCH  27  32
ENDBRANCH  24  25
ENDBRANCH   1  24
TORSDOF 8
ENDMDL
MODEL 3
REMARK VINA RESULT:    -6.678      1.404      2.607
REMARK INTER + INTRA:         -11.546
REMARK INTER:                 -10.056
REMARK INTRA:                  -1.490
REMARK UNBOUND:                -1.745
REMARK SMILES CCN(Cc1cc(F)ccc1C(F)(F)F)C(=O)Cn1c(=O)n(C)c2cnc(-c3ccccc3)nc21
REMARK SMILES IDX 3 1 2 2 1 3 16 4 17 5 18 6 19 7 20 8 35 9 21 10 22 11 24 12
REMARK SMILES IDX 34 13 25 14 27 15 26 16 23 17 28 18 29 19 33 20 30 21 32 22
REMARK SMILES IDX 31 23 4 24 5 25 6 26 11 27 7 28 10 29 9 30 8 31 12 32 13 33
REMARK SMILES IDX 14 34 15 35
REMARK H PARENT
ROOT
ATOM      1  N   UNL     1       9.107  14.506   2.847  1.00  0.00    -0.337 N 
ENDROOT
BRANCH   1   2
ATOM      2  C   UNL     1      10.240  15.171   3.499  1.00  0.00     0.116 C 
ATOM      3  C   UNL     1       9.889  15.767   4.854  1.00  0.00     0.027 C 
ENDBRANCH   1   2
BRANCH   1   4
ATOM      4  C   UNL     1       8.948  13.122   2.766  1.00  0.00     0.243 C 
ATOM      5  O   UNL     1       9.702  12.429   2.074  1.00  0.00    -0.273 OA
BRANCH   4   6
ATOM      6  C   UNL     1       7.834  12.445   3.575  1.00  0.00     0.229 C 
BRANCH   6   7
ATOM      7  N   UNL     1       7.882  12.701   4.992  1.00  0.00    -0.267 N 
ATOM      8  C   UNL     1       8.979  12.482   5.841  1.00  0.00     0.330 A 
ATOM      9  C   UNL     1       6.784  13.102   5.758  1.00  0.00     0.165 A 
ATOM     10  O   UNL     1      10.092  12.106   5.511  1.00  0.00    -0.248 OA
ATOM     11  N   UNL     1       8.540  12.793   7.143  1.00  0.00    -0.292 N 
ATOM     12  C   UNL     1       7.196  13.162   7.070  1.00  0.00     0.107 A 
ATOM     13  N   UNL     1       5.560  13.382   5.322  1.00  0.00    -0.208 NA
ATOM     14  C   UNL     1       6.272  13.541   7.991  1.00  0.00     0.144 A 
ATOM     15  C   UNL     1       4.698  13.758   6.291  1.00  0.00     0.161 A 
ATOM     16  N   UNL     1       5.010  13.847   7.617  1.00  0.00    -0.234 NA
ATOM     17  C   UNL     1       9.317  12.705   8.345  1.00  0.00     0.155 C 
BRANCH  15  18
ATOM     18  C   UNL     1       3.322  14.105   5.880  1.00  0.00     0.019 A 
ATOM     19  C   UNL     1       2.862  15.436   5.891  1.00  0.00     0.012 A 
ATOM     20  C   UNL     1       2.411  13.116   5.457  1.00  0.00     0.012 A 
ATOM     21  C   UNL     1       1.559  15.764   5.500  1.00  0.00     0.001 A 
ATOM     22  C   UNL     1       1.108  13.440   5.065  1.00  0.00     0.001 A 
ATOM     23  C   UNL     1       0.683  14.764   5.088  1.00  0.00     0.000 A 
ENDBRANCH  15  18
ENDBRANCH   6   7
ENDBRANCH   4   6
ENDBRANCH   1   4
BRANCH   1  24
ATOM     24  C   UNL     1       8.123  15.352   2.165  1.00  0.00     0.155 C 
BRANCH  24  25
ATOM     25  C   UNL     1       7.794  14.895   0.754  1.00  0.00    -0.013 A 
ATOM     26  C   UNL     1       6.552  14.269   0.524  1.00  0.00     0.045 A 
ATOM     27  C   UNL     1       8.671  15.091  -0.342  1.00  0.00     0.061 A 
ATOM     28  C   UNL     1       6.202  13.828  -0.747  1.00  0.00     0.123 A 
ATOM     29  C   UNL     1       8.288  14.632  -1.620  1.00  0.00     0.016 A 
ATOM     30  C   UNL     1       7.060  14.001  -1.821  1.00  0.00     0.040 A 
ATOM     31  F   UNL     1       5.020  13.230  -0.937  1.00  0.00    -0.207 F 
BRANCH  27  32
ATOM     32  C   UNL     1      10.011  15.780  -0.187  1.00  0.00     0.416 C 
ATOM     33  F   UNL     1       9.944  16.875   0.619  1.00  0.00    -0.166 F 
ATOM     34  F   UNL     1      10.541  16.219  -1.362  1.00  0.00    -0.166 F 
ATOM     35  F   UNL     1      10.955  14.966   0.360  1.00  0.00    -0.166 F 
ENDBRANCH  27  32
ENDBRANCH  24  25
ENDBRANCH   1  24
TORSDOF 8
ENDMDL
MODEL 4
REMARK VINA RESULT:    -6.675      3.299      7.347
REMARK INTER + INTRA:         -11.542
REMARK INTER:                  -9.937
REMARK INTRA:                  -1.605
REMARK UNBOUND:                -1.745
REMARK SMILES CCN(Cc1cc(F)ccc1C(F)(F)F)C(=O)Cn1c(=O)n(C)c2cnc(-c3ccccc3)nc21
REMARK SMILES IDX 3 1 2 2 1 3 16 4 17 5 18 6 19 7 20 8 35 9 21 10 22 11 24 12
REMARK SMILES IDX 34 13 25 14 27 15 26 16 23 17 28 18 29 19 33 20 30 21 32 22
REMARK SMILES IDX 31 23 4 24 5 25 6 26 11 27 7 28 10 29 9 30 8 31 12 32 13 33
REMARK SMILES IDX 14 34 15 35
REMARK H PARENT
ROOT
ATOM      1  N   UNL     1       5.277  14.197   7.221  1.00  0.00    -0.337 N 
ENDROOT
BRANCH   1   2
ATOM      2  C   UNL     1       6.059  14.560   8.407  1.00  0.00     0.116 C 
ATOM      3  C   UNL     1       5.943  13.547   9.537  1.00  0.00     0.027 C 
ENDBRANCH   1   2
BRANCH   1   4
ATOM      4  C   UNL     1       5.773  14.211   5.917  1.00  0.00     0.243 C 
ATOM      5  O   UNL     1       6.069  15.271   5.353  1.00  0.00    -0.273 OA
BRANCH   4   6
ATOM      6  C   UNL     1       5.986  12.883   5.179  1.00  0.00     0.229 C 
BRANCH   6   7
ATOM      7  N   UNL     1       7.364  12.481   5.054  1.00  0.00    -0.267 N 
ATOM      8  C   UNL     1       8.141  11.852   6.041  1.00  0.00     0.330 A 
ATOM      9  C   UNL     1       8.173  12.770   3.951  1.00  0.00     0.165 A 
ATOM     10  O   UNL     1       7.761  11.481   7.139  1.00  0.00    -0.248 OA
ATOM     11  N   UNL     1       9.438  11.729   5.505  1.00  0.00    -0.292 N 
ATOM     12  C   UNL     1       9.437  12.301   4.232  1.00  0.00     0.107 A 
ATOM     13  N   UNL     1       7.811  13.380   2.828  1.00  0.00    -0.208 NA
ATOM     14  C   UNL     1      10.387  12.477   3.278  1.00  0.00     0.144 A 
ATOM     15  C   UNL     1       8.804  13.514   1.923  1.00  0.00     0.161 A 
ATOM     16  N   UNL     1      10.086  13.084   2.108  1.00  0.00    -0.234 NA
ATOM     17  C   UNL     1      10.578  11.157   6.161  1.00  0.00     0.155 C 
BRANCH  15  18
ATOM     18  C   UNL     1       8.472  14.165   0.639  1.00  0.00     0.019 A 
ATOM     19  C   UNL     1       9.415  14.944  -0.059  1.00  0.00     0.012 A 
ATOM     20  C   UNL     1       7.195  14.031   0.056  1.00  0.00     0.012 A 
ATOM     21  C   UNL     1       9.100  15.558  -1.276  1.00  0.00     0.001 A 
ATOM     22  C   UNL     1       6.877  14.644  -1.159  1.00  0.00     0.001 A 
ATOM     23  C   UNL     1       7.830  15.408  -1.825  1.00  0.00     0.000 A 
ENDBRANCH  15  18
ENDBRANCH   6   7
ENDBRANCH   4   6
ENDBRANCH   1   4
BRANCH   1  24
ATOM     24  C   UNL     1       3.858  13.881   7.412  1.00  0.00     0.155 C 
BRANCH  24  25
ATOM     25  C   UNL     1       2.914  14.860   6.735  1.00  0.00    -0.013 A 
ATOM     26  C   UNL     1       3.051  16.233   7.023  1.00  0.00     0.045 A 
ATOM     27  C   UNL     1       1.919  14.454   5.811  1.00  0.00     0.061 A 
ATOM     28  C   UNL     1       2.212  17.170   6.434  1.00  0.00     0.123 A 
ATOM     29  C   UNL     1       1.081  15.429   5.230  1.00  0.00     0.016 A 
ATOM     30  C   UNL     1       1.226  16.781   5.542  1.00  0.00     0.040 A 
ATOM     31  F   UNL     1       2.357  18.467   6.731  1.00  0.00    -0.207 F 
BRANCH  27  32
ATOM     32  C   UNL     1       1.724  13.002   5.424  1.00  0.00     0.416 C 
ATOM     33  F   UNL     1       0.749  12.837   4.489  1.00  0.00    -0.166 F 
ATOM     34  F   UNL     1       1.373  12.200   6.468  1.00  0.00    -0.166 F 
ATOM     35  F   UNL     1       2.851  12.447   4.899  1.00  0.00    -0.166 F 
ENDBRANCH  27  32
ENDBRANCH  24  25
ENDBRANCH   1  24
TORSDOF 8
ENDMDL
MODEL 5
REMARK VINA RESULT:    -6.612      3.328      6.728
REMARK INTER + INTRA:         -11.449
REMARK INTER:                  -9.486
REMARK INTRA:                  -1.963
REMARK UNBOUND:                -1.745
REMARK SMILES CCN(Cc1cc(F)ccc1C(F)(F)F)C(=O)Cn1c(=O)n(C)c2cnc(-c3ccccc3)nc21
REMARK SMILES IDX 3 1 2 2 1 3 16 4 17 5 18 6 19 7 20 8 35 9 21 10 22 11 24 12
REMARK SMILES IDX 34 13 25 14 27 15 26 16 23 17 28 18 29 19 33 20 30 21 32 22
REMARK SMILES IDX 31 23 4 24 5 25 6 26 11 27 7 28 10 29 9 30 8 31 12 32 13 33
REMARK SMILES IDX 14 34 15 35
REMARK H PARENT
ROOT
ATOM      1  N   UNL     1       5.641  15.141   6.359  1.00  0.00    -0.337 N 
ENDROOT
BRANCH   1   2
ATOM      2  C   UNL     1       5.795  15.911   5.120  1.00  0.00     0.116 C 
ATOM      3  C   UNL     1       7.048  16.773   5.099  1.00  0.00     0.027 C 
ENDBRANCH   1   2
BRANCH   1   4
ATOM      4  C   UNL     1       6.565  14.205   6.824  1.00  0.00     0.243 C 
ATOM      5  O   UNL     1       7.355  14.480   7.735  1.00  0.00    -0.273 OA
BRANCH   4   6
ATOM      6  C   UNL     1       6.580  12.797   6.215  1.00  0.00     0.229 C 
BRANCH   6   7
ATOM      7  N   UNL     1       7.817  12.434   5.572  1.00  0.00    -0.267 N 
ATOM      8  C   UNL     1       8.878  11.719   6.152  1.00  0.00     0.330 A 
ATOM      9  C   UNL     1       8.193  12.851   4.292  1.00  0.00     0.165 A 
ATOM     10  O   UNL     1       8.902  11.229   7.269  1.00  0.00    -0.248 OA
ATOM     11  N   UNL     1       9.902  11.676   5.184  1.00  0.00    -0.292 N 
ATOM     12  C   UNL     1       9.465  12.378   4.060  1.00  0.00     0.107 A 
ATOM     13  N   UNL     1       7.471  13.568   3.438  1.00  0.00    -0.208 NA
ATOM     14  C   UNL     1      10.022  12.669   2.857  1.00  0.00     0.144 A 
ATOM     15  C   UNL     1       8.086  13.813   2.261  1.00  0.00     0.161 A 
ATOM     16  N   UNL     1       9.342  13.389   1.937  1.00  0.00    -0.234 NA
ATOM     17  C   UNL     1      11.187  11.059   5.335  1.00  0.00     0.155 C 
BRANCH  15  18
ATOM     18  C   UNL     1       7.337  14.590   1.251  1.00  0.00     0.019 A 
ATOM     19  C   UNL     1       6.718  13.966   0.150  1.00  0.00     0.012 A 
ATOM     20  C   UNL     1       7.207  15.990   1.349  1.00  0.00     0.012 A 
ATOM     21  C   UNL     1       6.008  14.702  -0.805  1.00  0.00     0.001 A 
ATOM     22  C   UNL     1       6.499  16.729   0.397  1.00  0.00     0.001 A 
ATOM     23  C   UNL     1       5.899  16.084  -0.680  1.00  0.00     0.000 A 
ENDBRANCH  15  18
ENDBRANCH   6   7
ENDBRANCH   4   6
ENDBRANCH   1   4
BRANCH   1  24
ATOM     24  C   UNL     1       4.394  15.307   7.112  1.00  0.00     0.155 C 
BRANCH  24  25
ATOM     25  C   UNL     1       3.152  14.894   6.341  1.00  0.00    -0.013 A 
ATOM     26  C   UNL     1       3.025  13.549   5.943  1.00  0.00     0.045 A 
ATOM     27  C   UNL     1       2.107  15.800   6.026  1.00  0.00     0.061 A 
ATOM     28  C   UNL     1       1.911  13.119   5.233  1.00  0.00     0.123 A 
ATOM     29  C   UNL     1       0.988  15.334   5.303  1.00  0.00     0.016 A 
ATOM     30  C   UNL     1       0.892  13.999   4.907  1.00  0.00     0.040 A 
ATOM     31  F   UNL     1       1.818  11.837   4.859  1.00  0.00    -0.207 F 
BRANCH  27  32
ATOM     32  C   UNL     1       2.151  17.255   6.442  1.00  0.00     0.416 C 
ATOM     33  F   UNL     1       2.212  17.411   7.793  1.00  0.00    -0.166 F 
ATOM     34  F   UNL     1       1.066  17.973   6.037  1.00  0.00    -0.166 F 
ATOM     35  F   UNL     1       3.232  17.909   5.936  1.00  0.00    -0.166 F 
ENDBRANCH  27  32
ENDBRANCH  24  25
ENDBRANCH   1  24
TORSDOF 8
ENDMDL
MODEL 6
REMARK VINA RESULT:    -6.567      3.799      8.203
REMARK INTER + INTRA:         -11.384
REMARK INTER:                  -9.943
REMARK INTRA:                  -1.440
REMARK UNBOUND:                -1.745
REMARK SMILES CCN(Cc1cc(F)ccc1C(F)(F)F)C(=O)Cn1c(=O)n(C)c2cnc(-c3ccccc3)nc21
REMARK SMILES IDX 3 1 2 2 1 3 16 4 17 5 18 6 19 7 20 8 35 9 21 10 22 11 24 12
REMARK SMILES IDX 34 13 25 14 27 15 26 16 23 17 28 18 29 19 33 20 30 21 32 22
REMARK SMILES IDX 31 23 4 24 5 25 6 26 11 27 7 28 10 29 9 30 8 31 12 32 13 33
REMARK SMILES IDX 14 34 15 35
REMARK H PARENT
ROOT
ATOM      1  N   UNL     1       3.371  14.940   6.099  1.00  0.00    -0.337 N 
ENDROOT
BRANCH   1   2
ATOM      2  C   UNL     1       3.379  15.931   7.180  1.00  0.00     0.116 C 
ATOM      3  C   UNL     1       3.604  15.319   8.555  1.00  0.00     0.027 C 
ENDBRANCH   1   2
BRANCH   1   4
ATOM      4  C   UNL     1       4.479  14.186   5.714  1.00  0.00     0.243 C 
ATOM      5  O   UNL     1       4.361  13.012   5.344  1.00  0.00    -0.273 OA
BRANCH   4   6
ATOM      6  C   UNL     1       5.869  14.835   5.719  1.00  0.00     0.229 C 
BRANCH   6   7
ATOM      7  N   UNL     1       6.966  13.904   5.636  1.00  0.00    -0.267 N 
ATOM      8  C   UNL     1       7.561  13.221   6.711  1.00  0.00     0.330 A 
ATOM      9  C   UNL     1       7.684  13.632   4.468  1.00  0.00     0.165 A 
ATOM     10  O   UNL     1       7.205  13.248   7.877  1.00  0.00    -0.248 OA
ATOM     11  N   UNL     1       8.640  12.494   6.168  1.00  0.00    -0.292 N 
ATOM     12  C   UNL     1       8.701  12.765   4.801  1.00  0.00     0.107 A 
ATOM     13  N   UNL     1       7.446  14.108   3.251  1.00  0.00    -0.208 NA
ATOM     14  C   UNL     1       9.523  12.365   3.797  1.00  0.00     0.144 A 
ATOM     15  C   UNL     1       8.298  13.662   2.304  1.00  0.00     0.161 A 
ATOM     16  N   UNL     1       9.335  12.805   2.533  1.00  0.00    -0.234 NA
ATOM     17  C   UNL     1       9.549  11.656   6.894  1.00  0.00     0.155 C 
BRANCH  15  18
ATOM     18  C   UNL     1       8.085  14.133   0.920  1.00  0.00     0.019 A 
ATOM     19  C   UNL     1       6.851  13.959   0.263  1.00  0.00     0.012 A 
ATOM     20  C   UNL     1       9.109  14.780   0.198  1.00  0.00     0.012 A 
ATOM     21  C   UNL     1       6.649  14.407  -1.047  1.00  0.00     0.001 A 
ATOM     22  C   UNL     1       8.910  15.229  -1.111  1.00  0.00     0.001 A 
ATOM     23  C   UNL     1       7.680  15.041  -1.734  1.00  0.00     0.000 A 
ENDBRANCH  15  18
ENDBRANCH   6   7
ENDBRANCH   4   6
ENDBRANCH   1   4
BRANCH   1  24
ATOM     24  C   UNL     1       2.138  14.797   5.318  1.00  0.00     0.155 C 
BRANCH  24  25
ATOM     25  C   UNL     1       0.870  14.898   6.149  1.00  0.00    -0.013 A 
ATOM     26  C   UNL     1       0.154  16.111   6.137  1.00  0.00     0.045 A 
ATOM     27  C   UNL     1       0.366  13.817   6.916  1.00  0.00     0.061 A 
ATOM     28  C   UNL     1      -1.010  16.258   6.881  1.00  0.00     0.123 A 
ATOM     29  C   UNL     1      -0.818  13.996   7.662  1.00  0.00     0.016 A 
ATOM     30  C   UNL     1      -1.502  15.212   7.646  1.00  0.00     0.040 A 
ATOM     31  F   UNL     1      -1.667  17.423   6.859  1.00  0.00    -0.207 F 
BRANCH  27  32
ATOM     32  C   UNL     1       1.059  12.471   6.961  1.00  0.00     0.416 C 
ATOM     33  F   UNL     1       2.172  12.482   7.744  1.00  0.00    -0.166 F 
ATOM     34  F   UNL     1       1.471  12.026   5.741  1.00  0.00    -0.166 F 
ATOM     35  F   UNL     1       0.258  11.488   7.457  1.00  0.00    -0.166 F 
ENDBRANCH  27  32
ENDBRANCH  24  25
ENDBRANCH   1  24
TORSDOF 8
ENDMDL
MODEL 7
REMARK VINA RESULT:    -6.483      3.571      7.192
REMARK INTER + INTRA:         -11.260
REMARK INTER:                  -9.645
REMARK INTRA:                  -1.615
REMARK UNBOUND:                -1.745
REMARK SMILES CCN(Cc1cc(F)ccc1C(F)(F)F)C(=O)Cn1c(=O)n(C)c2cnc(-c3ccccc3)nc21
REMARK SMILES IDX 3 1 2 2 1 3 16 4 17 5 18 6 19 7 20 8 35 9 21 10 22 11 24 12
REMARK SMILES IDX 34 13 25 14 27 15 26 16 23 17 28 18 29 19 33 20 30 21 32 22
REMARK SMILES IDX 31 23 4 24 5 25 6 26 11 27 7 28 10 29 9 30 8 31 12 32 13 33
REMARK SMILES IDX 14 34 15 35
REMARK H PARENT
ROOT
ATOM      1  N   UNL     1       3.755  15.148   8.082  1.00  0.00    -0.337 N 
ENDROOT
BRANCH   1   2
ATOM      2  C   UNL     1       2.771  15.876   8.888  1.00  0.00     0.116 C 
ATOM      3  C   UNL     1       1.530  15.056   9.208  1.00  0.00     0.027 C 
ENDBRANCH   1   2
BRANCH   1   4
ATOM      4  C   UNL     1       4.677  14.236   8.599  1.00  0.00     0.243 C 
ATOM      5  O   UNL     1       4.308  13.228   9.213  1.00  0.00    -0.273 OA
BRANCH   4   6
ATOM      6  C   UNL     1       6.176  14.473   8.374  1.00  0.00     0.229 C 
BRANCH   6   7
ATOM      7  N   UNL     1       6.911  13.307   7.957  1.00  0.00    -0.267 N 
ATOM      8  C   UNL     1       7.383  12.278   8.790  1.00  0.00     0.330 A 
ATOM      9  C   UNL     1       7.369  13.086   6.655  1.00  0.00     0.165 A 
ATOM     10  O   UNL     1       7.191  12.167   9.989  1.00  0.00    -0.248 OA
ATOM     11  N   UNL     1       8.112  11.402   7.962  1.00  0.00    -0.292 N 
ATOM     12  C   UNL     1       8.096  11.917   6.665  1.00  0.00     0.107 A 
ATOM     13  N   UNL     1       7.152  13.848   5.588  1.00  0.00    -0.208 NA
ATOM     14  C   UNL     1       8.632  11.513   5.485  1.00  0.00     0.144 A 
ATOM     15  C   UNL     1       7.708  13.381   4.450  1.00  0.00     0.161 A 
ATOM     16  N   UNL     1       8.445  12.236   4.358  1.00  0.00    -0.234 NA
ATOM     17  C   UNL     1       8.793  10.210   8.377  1.00  0.00     0.155 C 
BRANCH  15  18
ATOM     18  C   UNL     1       7.493  14.165   3.216  1.00  0.00     0.019 A 
ATOM     19  C   UNL     1       7.314  15.562   3.250  1.00  0.00     0.012 A 
ATOM     20  C   UNL     1       7.461  13.546   1.950  1.00  0.00     0.012 A 
ATOM     21  C   UNL     1       7.113  16.303   2.081  1.00  0.00     0.001 A 
ATOM     22  C   UNL     1       7.260  14.284   0.779  1.00  0.00     0.001 A 
ATOM     23  C   UNL     1       7.086  15.663   0.846  1.00  0.00     0.000 A 
ENDBRANCH  15  18
ENDBRANCH   6   7
ENDBRANCH   4   6
ENDBRANCH   1   4
BRANCH   1  24
ATOM     24  C   UNL     1       3.830  15.463   6.652  1.00  0.00     0.155 C 
BRANCH  24  25
ATOM     25  C   UNL     1       2.477  15.509   5.962  1.00  0.00    -0.013 A 
ATOM     26  C   UNL     1       1.885  16.766   5.727  1.00  0.00     0.045 A 
ATOM     27  C   UNL     1       1.796  14.344   5.526  1.00  0.00     0.061 A 
ATOM     28  C   UNL     1       0.648  16.865   5.104  1.00  0.00     0.123 A 
ATOM     29  C   UNL     1       0.541  14.476   4.896  1.00  0.00     0.016 A 
ATOM     30  C   UNL     1      -0.032  15.731   4.688  1.00  0.00     0.040 A 
ATOM     31  F   UNL     1       0.104  18.070   4.899  1.00  0.00    -0.207 F 
BRANCH  27  32
ATOM     32  C   UNL     1       2.375  12.957   5.714  1.00  0.00     0.416 C 
ATOM     33  F   UNL     1       1.819  12.041   4.873  1.00  0.00    -0.166 F 
ATOM     34  F   UNL     1       2.202  12.457   6.969  1.00  0.00    -0.166 F 
ATOM     35  F   UNL     1       3.716  12.916   5.484  1.00  0.00    -0.166 F 
ENDBRANCH  27  32
ENDBRANCH  24  25
ENDBRANCH   1  24
TORSDOF 8
ENDMDL
MODEL 8
REMARK VINA RESULT:    -6.483      3.412      7.971
REMARK INTER + INTRA:         -11.260
REMARK INTER:                  -9.997
REMARK INTRA:                  -1.263
REMARK UNBOUND:                -1.745
REMARK SMILES CCN(Cc1cc(F)ccc1C(F)(F)F)C(=O)Cn1c(=O)n(C)c2cnc(-c3ccccc3)nc21
REMARK SMILES IDX 3 1 2 2 1 3 16 4 17 5 18 6 19 7 20 8 35 9 21 10 22 11 24 12
REMARK SMILES IDX 34 13 25 14 27 15 26 16 23 17 28 18 29 19 33 20 30 21 32 22
REMARK SMILES IDX 31 23 4 24 5 25 6 26 11 27 7 28 10 29 9 30 8 31 12 32 13 33
REMARK SMILES IDX 14 34 15 35
REMARK H PARENT
ROOT
ATOM      1  N   UNL     1       4.334  14.851   7.023  1.00  0.00    -0.337 N 
ENDROOT
BRANCH   1   2
ATOM      2  C   UNL     1       3.799  16.201   7.226  1.00  0.00     0.116 C 
ATOM      3  C   UNL     1       3.418  16.898   5.929  1.00  0.00     0.027 C 
ENDBRANCH   1   2
BRANCH   1   4
ATOM      4  C   UNL     1       5.502  14.565   6.315  1.00  0.00     0.243 C 
ATOM      5  O   UNL     1       6.458  15.348   6.310  1.00  0.00    -0.273 OA
BRANCH   4   6
ATOM      6  C   UNL     1       5.613  13.238   5.553  1.00  0.00     0.229 C 
BRANCH   6   7
ATOM      7  N   UNL     1       6.954  12.725   5.435  1.00  0.00    -0.267 N 
ATOM      8  C   UNL     1       7.702  12.107   6.452  1.00  0.00     0.330 A 
ATOM      9  C   UNL     1       7.760  12.876   4.303  1.00  0.00     0.165 A 
ATOM     10  O   UNL     1       7.318  11.840   7.578  1.00  0.00    -0.248 OA
ATOM     11  N   UNL     1       8.975  11.850   5.906  1.00  0.00    -0.292 N 
ATOM     12  C   UNL     1       8.991  12.333   4.597  1.00  0.00     0.107 A 
ATOM     13  N   UNL     1       7.422  13.434   3.146  1.00  0.00    -0.208 NA
ATOM     14  C   UNL     1       9.932  12.372   3.619  1.00  0.00     0.144 A 
ATOM     15  C   UNL     1       8.404  13.431   2.220  1.00  0.00     0.161 A 
ATOM     16  N   UNL     1       9.654  12.919   2.414  1.00  0.00    -0.234 NA
ATOM     17  C   UNL     1      10.082  11.239   6.583  1.00  0.00     0.155 C 
BRANCH  15  18
ATOM     18  C   UNL     1       8.096  14.018   0.899  1.00  0.00     0.019 A 
ATOM     19  C   UNL     1       9.081  14.670   0.133  1.00  0.00     0.012 A 
ATOM     20  C   UNL     1       6.800  13.946   0.348  1.00  0.00     0.012 A 
ATOM     21  C   UNL     1       8.788  15.224  -1.119  1.00  0.00     0.001 A 
ATOM     22  C   UNL     1       6.504  14.498  -0.902  1.00  0.00     0.001 A 
ATOM     23  C   UNL     1       7.499  15.137  -1.635  1.00  0.00     0.000 A 
ENDBRANCH  15  18
ENDBRANCH   6   7
ENDBRANCH   4   6
ENDBRANCH   1   4
BRANCH   1  24
ATOM     24  C   UNL     1       3.542  13.724   7.526  1.00  0.00     0.155 C 
BRANCH  24  25
ATOM     25  C   UNL     1       2.079  14.058   7.761  1.00  0.00    -0.013 A 
ATOM     26  C   UNL     1       1.704  14.585   9.013  1.00  0.00     0.045 A 
ATOM     27  C   UNL     1       1.081  13.883   6.769  1.00  0.00     0.061 A 
ATOM     28  C   UNL     1       0.379  14.904   9.282  1.00  0.00     0.123 A 
ATOM     29  C   UNL     1      -0.256  14.215   7.072  1.00  0.00     0.016 A 
ATOM     30  C   UNL     1      -0.606  14.722   8.324  1.00  0.00     0.040 A 
ATOM     31  F   UNL     1       0.047  15.396  10.482  1.00  0.00    -0.207 F 
BRANCH  27  32
ATOM     32  C   UNL     1       1.404  13.349   5.389  1.00  0.00     0.416 C 
ATOM     33  F   UNL     1       0.351  13.445   4.532  1.00  0.00    -0.166 F 
ATOM     34  F   UNL     1       1.767  12.036   5.381  1.00  0.00    -0.166 F 
ATOM     35  F   UNL     1       2.433  14.017   4.799  1.00  0.00    -0.166 F 
ENDBRANCH  27  32
ENDBRANCH  24  25
ENDBRANCH   1  24
TORSDOF 8
ENDMDL
MODEL 9
REMARK VINA RESULT:    -6.442      1.940      2.952
REMARK INTER + INTRA:         -11.199
REMARK INTER:                  -9.579
REMARK INTRA:                  -1.620
REMARK UNBOUND:                -1.745
REMARK SMILES CCN(Cc1cc(F)ccc1C(F)(F)F)C(=O)Cn1c(=O)n(C)c2cnc(-c3ccccc3)nc21
REMARK SMILES IDX 3 1 2 2 1 3 16 4 17 5 18 6 19 7 20 8 35 9 21 10 22 11 24 12
REMARK SMILES IDX 34 13 25 14 27 15 26 16 23 17 28 18 29 19 33 20 30 21 32 22
REMARK SMILES IDX 31 23 4 24 5 25 6 26 11 27 7 28 10 29 9 30 8 31 12 32 13 33
REMARK SMILES IDX 14 34 15 35
REMARK H PARENT
ROOT
ATOM      1  N   UNL     1       9.716  15.127   0.584  1.00  0.00    -0.337 N 
ENDROOT
BRANCH   1   2
ATOM      2  C   UNL     1      11.141  15.436   0.425  1.00  0.00     0.116 C 
ATOM      3  C   UNL     1      11.593  15.457  -1.027  1.00  0.00     0.027 C 
ENDBRANCH   1   2
BRANCH   1   4
ATOM      4  C   UNL     1       9.113  14.798   1.798  1.00  0.00     0.243 C 
ATOM      5  O   UNL     1       8.905  15.655   2.665  1.00  0.00    -0.273 OA
BRANCH   4   6
ATOM      6  C   UNL     1       8.670  13.351   2.050  1.00  0.00     0.229 C 
BRANCH   6   7
ATOM      7  N   UNL     1       8.922  12.871   3.385  1.00  0.00    -0.267 N 
ATOM      8  C   UNL     1      10.071  12.192   3.822  1.00  0.00     0.330 A 
ATOM      9  C   UNL     1       7.991  12.910   4.427  1.00  0.00     0.165 A 
ATOM     10  O   UNL     1      11.072  11.958   3.165  1.00  0.00    -0.248 OA
ATOM     11  N   UNL     1       9.839  11.846   5.168  1.00  0.00    -0.292 N 
ATOM     12  C   UNL     1       8.561  12.288   5.514  1.00  0.00     0.107 A 
ATOM     13  N   UNL     1       6.775  13.447   4.397  1.00  0.00    -0.208 NA
ATOM     14  C   UNL     1       7.817  12.221   6.648  1.00  0.00     0.144 A 
ATOM     15  C   UNL     1       6.097  13.349   5.560  1.00  0.00     0.161 A 
ATOM     16  N   UNL     1       6.575  12.753   6.691  1.00  0.00    -0.234 NA
ATOM     17  C   UNL     1      10.734  11.127   6.027  1.00  0.00     0.155 C 
BRANCH  15  18
ATOM     18  C   UNL     1       4.744  13.941   5.611  1.00  0.00     0.019 A 
ATOM     19  C   UNL     1       3.587  13.149   5.484  1.00  0.00     0.012 A 
ATOM     20  C   UNL     1       4.555  15.327   5.791  1.00  0.00     0.012 A 
ATOM     21  C   UNL     1       2.306  13.711   5.534  1.00  0.00     0.001 A 
ATOM     22  C   UNL     1       3.277  15.891   5.842  1.00  0.00     0.001 A 
ATOM     23  C   UNL     1       2.152  15.083   5.712  1.00  0.00     0.000 A 
ENDBRANCH  15  18
ENDBRANCH   6   7
ENDBRANCH   4   6
ENDBRANCH   1   4
BRANCH   1  24
ATOM     24  C   UNL     1       8.892  15.078  -0.628  1.00  0.00     0.155 C 
BRANCH  24  25
ATOM     25  C   UNL     1       7.751  16.082  -0.634  1.00  0.00    -0.013 A 
ATOM     26  C   UNL     1       8.064  17.455  -0.621  1.00  0.00     0.045 A 
ATOM     27  C   UNL     1       6.387  15.695  -0.676  1.00  0.00     0.061 A 
ATOM     28  C   UNL     1       7.059  18.415  -0.622  1.00  0.00     0.123 A 
ATOM     29  C   UNL     1       5.389  16.692  -0.676  1.00  0.00     0.016 A 
ATOM     30  C   UNL     1       5.724  18.046  -0.647  1.00  0.00     0.040 A 
ATOM     31  F   UNL     1       7.383  19.713  -0.600  1.00  0.00    -0.207 F 
BRANCH  27  32
ATOM     32  C   UNL     1       5.965  14.241  -0.722  1.00  0.00     0.416 C 
ATOM     33  F   UNL     1       6.252  13.577   0.432  1.00  0.00    -0.166 F 
ATOM     34  F   UNL     1       6.564  13.527  -1.716  1.00  0.00    -0.166 F 
ATOM     35  F   UNL     1       4.627  14.093  -0.920  1.00  0.00    -0.166 F 
ENDBRANCH  27  32
ENDBRANCH  24  25
ENDBRANCH   1  24
TORSDOF 8
ENDMDL
MODEL 10
REMARK VINA RESULT:    -6.413      7.719     11.297
REMARK INTER + INTRA:         -11.157
REMARK INTER:                  -7.550
REMARK INTRA:                  -3.607
REMARK UNBOUND:                -1.745
REMARK SMILES CCN(Cc1cc(F)ccc1C(F)(F)F)C(=O)Cn1c(=O)n(C)c2cnc(-c3ccccc3)nc21
REMARK SMILES IDX 3 1 2 2 1 3 16 4 17 5 18 6 19 7 20 8 35 9 21 10 22 11 24 12
REMARK SMILES IDX 34 13 25 14 27 15 26 16 23 17 28 18 29 19 33 20 30 21 32 22
REMARK SMILES IDX 31 23 4 24 5 25 6 26 11 27 7 28 10 29 9 30 8 31 12 32 13 33
REMARK SMILES IDX 14 34 15 35
REMARK H PARENT
ROOT
ATOM      1  N   UNL     1      -3.329  17.332   8.806  1.00  0.00    -0.337 N 
ENDROOT
BRANCH   1   2
ATOM      2  C   UNL     1      -4.248  18.379   9.265  1.00  0.00     0.116 C 
ATOM      3  C   UNL     1      -4.282  18.530  10.778  1.00  0.00     0.027 C 
ENDBRANCH   1   2
BRANCH   1   4
ATOM      4  C   UNL     1      -3.487  16.610   7.623  1.00  0.00     0.243 C 
ATOM      5  O   UNL     1      -3.472  15.373   7.619  1.00  0.00    -0.273 OA
BRANCH   4   6
ATOM      6  C   UNL     1      -3.715  17.363   6.307  1.00  0.00     0.229 C 
BRANCH   6   7
ATOM      7  N   UNL     1      -2.670  18.292   5.959  1.00  0.00    -0.267 N 
ATOM      8  C   UNL     1      -2.816  19.677   5.771  1.00  0.00     0.330 A 
ATOM      9  C   UNL     1      -1.360  17.923   5.638  1.00  0.00     0.165 A 
ATOM     10  O   UNL     1      -3.831  20.331   5.938  1.00  0.00    -0.248 OA
ATOM     11  N   UNL     1      -1.555  20.155   5.362  1.00  0.00    -0.292 N 
ATOM     12  C   UNL     1      -0.684  19.068   5.281  1.00  0.00     0.107 A 
ATOM     13  N   UNL     1      -0.841  16.700   5.669  1.00  0.00    -0.208 NA
ATOM     14  C   UNL     1       0.622  18.931   4.935  1.00  0.00     0.144 A 
ATOM     15  C   UNL     1       0.461  16.642   5.319  1.00  0.00     0.161 A 
ATOM     16  N   UNL     1       1.216  17.717   4.950  1.00  0.00    -0.234 NA
ATOM     17  C   UNL     1      -1.225  21.513   5.040  1.00  0.00     0.155 C 
BRANCH  15  18
ATOM     18  C   UNL     1       1.115  15.317   5.348  1.00  0.00     0.019 A 
ATOM     19  C   UNL     1       2.455  15.163   5.751  1.00  0.00     0.012 A 
ATOM     20  C   UNL     1       0.420  14.147   4.974  1.00  0.00     0.012 A 
ATOM     21  C   UNL     1       3.072  13.907   5.780  1.00  0.00     0.001 A 
ATOM     22  C   UNL     1       1.034  12.891   5.002  1.00  0.00     0.001 A 
ATOM     23  C   UNL     1       2.360  12.772   5.405  1.00  0.00     0.000 A 
ENDBRANCH  15  18
ENDBRANCH   6   7
ENDBRANCH   4   6
ENDBRANCH   1   4
BRANCH   1  24
ATOM     24  C   UNL     1      -2.220  16.966   9.692  1.00  0.00     0.155 C 
BRANCH  24  25
ATOM     25  C   UNL     1      -0.877  17.528   9.259  1.00  0.00    -0.013 A 
ATOM     26  C   UNL     1      -0.739  18.925   9.144  1.00  0.00     0.045 A 
ATOM     27  C   UNL     1       0.248  16.708   8.989  1.00  0.00     0.061 A 
ATOM     28  C   UNL     1       0.466  19.491   8.748  1.00  0.00     0.123 A 
ATOM     29  C   UNL     1       1.459  17.312   8.588  1.00  0.00     0.016 A 
ATOM     30  C   UNL     1       1.566  18.698   8.466  1.00  0.00     0.040 A 
ATOM     31  F   UNL     1       0.568  20.822   8.638  1.00  0.00    -0.207 F 
BRANCH  27  32
ATOM     32  C   UNL     1       0.194  15.200   9.116  1.00  0.00     0.416 C 
ATOM     33  F   UNL     1      -0.700  14.635   8.258  1.00  0.00    -0.166 F 
ATOM     34  F   UNL     1      -0.164  14.768  10.358  1.00  0.00    -0.166 F 
ATOM     35  F   UNL     1       1.393  14.611   8.855  1.00  0.00    -0.166 F 
ENDBRANCH  27  32
ENDBRANCH  24  25
ENDBRANCH   1  24
TORSDOF 8
ENDMDL
