MODEL 1
REMARK VINA RESULT:    -6.277      0.000      0.000
REMARK INTER + INTRA:         -10.273
REMARK INTER:                  -8.846
REMARK INTRA:                  -1.426
REMARK UNBOUND:                -1.426
REMARK SMILES CCN(Cc1ccccc1)C(=O)Cn1c(=O)n(C)c2cnc(-c3ccccc3)nc21
REMARK SMILES IDX 12 1 11 2 13 3 14 4 16 5 15 6 17 7 30 8 19 9 29 10 20 11
REMARK SMILES IDX 22 12 21 13 18 14 23 15 24 16 28 17 25 18 27 19 26 20 3 21
REMARK SMILES IDX 4 22 5 23 6 24 10 25 7 26 9 27 8 28 2 29 1 30
REMARK H PARENT
ROOT
ATOM      1  O   UNL     1       7.341  14.412   7.581  1.00  0.00    -0.273 OA
ATOM      2  C   UNL     1       6.468  14.112   6.764  1.00  0.00     0.243 C 
ENDROOT
BRANCH   2   3
ATOM      3  C   UNL     1       6.430  12.727   6.141  1.00  0.00     0.229 C 
BRANCH   3   4
ATOM      4  N   UNL     1       7.704  12.420   5.546  1.00  0.00    -0.267 N 
ATOM      5  O   UNL     1       8.805  11.188   7.251  1.00  0.00    -0.248 OA
ATOM      6  C   UNL     1       8.775  11.688   6.135  1.00  0.00     0.330 A 
ATOM      7  N   UNL     1       9.801  11.663   5.148  1.00  0.00    -0.292 N 
ATOM      8  C   UNL     1       8.072  12.822   4.250  1.00  0.00     0.165 A 
ATOM      9  C   UNL     1       9.352  12.355   4.020  1.00  0.00     0.107 A 
ATOM     10  N   UNL     1       7.357  13.526   3.365  1.00  0.00    -0.208 NA
ATOM     11  C   UNL     1       9.933  12.624   2.812  1.00  0.00     0.144 A 
ATOM     12  C   UNL     1       8.017  13.740   2.203  1.00  0.00     0.161 A 
ATOM     13  N   UNL     1       9.271  13.330   1.869  1.00  0.00    -0.234 NA
ATOM     14  C   UNL     1      11.087  11.030   5.289  1.00  0.00     0.155 C 
BRANCH  12  15
ATOM     15  C   UNL     1       7.311  14.494   1.199  1.00  0.00     0.019 A 
ATOM     16  C   UNL     1       6.647  13.833   0.162  1.00  0.00     0.012 A 
ATOM     17  C   UNL     1       7.283  15.890   1.258  1.00  0.00     0.012 A 
ATOM     18  C   UNL     1       5.960  14.562  -0.809  1.00  0.00     0.001 A 
ATOM     19  C   UNL     1       6.597  16.619   0.286  1.00  0.00     0.001 A 
ATOM     20  C   UNL     1       5.936  15.956  -0.747  1.00  0.00     0.000 A 
ENDBRANCH  12  15
ENDBRANCH   3   4
ENDBRANCH   2   3
BRANCH   2  21
ATOM     21  N   UNL     1       5.462  14.994   6.351  1.00  0.00    -0.337 N 
BRANCH  21  22
ATOM     22  C   UNL     1       4.211  15.152   7.088  1.00  0.00     0.155 C 
BRANCH  22  23
ATOM     23  C   UNL     1       3.034  14.633   6.314  1.00  0.00    -0.029 A 
ATOM     24  C   UNL     1       2.956  13.280   6.007  1.00  0.00     0.005 A 
ATOM     25  C   UNL     1       2.035  15.511   5.910  1.00  0.00     0.005 A 
ATOM     26  C   UNL     1       1.863  12.797   5.288  1.00  0.00     0.000 A 
ATOM     27  C   UNL     1       0.941  15.028   5.190  1.00  0.00     0.000 A 
ATOM     28  C   UNL     1       0.856  13.671   4.879  1.00  0.00     0.000 A 
ENDBRANCH  22  23
ENDBRANCH  21  22
BRANCH  21  29
ATOM     29  C   UNL     1       5.588  15.818   5.155  1.00  0.00     0.116 C 
ATOM     30  C   UNL     1       5.439  17.290   5.477  1.00  0.00     0.027 C 
ENDBRANCH  21  29
ENDBRANCH   2  21
TORSDOF 7
ENDMDL
MODEL 2
REMARK VINA RESULT:    -6.201      1.273      1.837
REMARK INTER + INTRA:         -10.165
REMARK INTER:                  -9.185
REMARK INTRA:                  -0.980
REMARK UNBOUND:                -1.426
REMARK SMILES CCN(Cc1ccccc1)C(=O)Cn1c(=O)n(C)c2cnc(-c3ccccc3)nc21
REMARK SMILES IDX 12 1 11 2 13 3 14 4 16 5 15 6 17 7 30 8 19 9 29 10 20 11
REMARK SMILES IDX 22 12 21 13 18 14 23 15 24 16 28 17 25 18 27 19 26 20 3 21
REMARK SMILES IDX 4 22 5 23 6 24 10 25 7 26 9 27 8 28 2 29 1 30
REMARK H PARENT
ROOT
ATOM      1  O   UNL     1       6.389  15.444   5.458  1.00  0.00    -0.273 OA
ATOM      2  C   UNL     1       5.778  14.486   5.937  1.00  0.00     0.243 C 
ENDROOT
BRANCH   2   3
ATOM      3  C   UNL     1       5.836  13.118   5.278  1.00  0.00     0.229 C 
BRANCH   3   4
ATOM      4  N   UNL     1       7.205  12.694   5.146  1.00  0.00    -0.267 N 
ATOM      5  O   UNL     1       7.655  11.680   7.245  1.00  0.00    -0.248 OA
ATOM      6  C   UNL     1       7.996  12.020   6.121  1.00  0.00     0.330 A 
ATOM      7  N   UNL     1       9.266  11.828   5.507  1.00  0.00    -0.292 N 
ATOM      8  C   UNL     1       7.973  12.901   3.986  1.00  0.00     0.165 A 
ATOM      9  C   UNL     1       9.227  12.369   4.219  1.00  0.00     0.107 A 
ATOM     10  N   UNL     1       7.608  13.496   2.844  1.00  0.00    -0.208 NA
ATOM     11  C   UNL     1      10.160  12.451   3.224  1.00  0.00     0.144 A 
ATOM     12  C   UNL     1       8.600  13.527   1.924  1.00  0.00     0.161 A 
ATOM     13  N   UNL     1       9.863  13.038   2.045  1.00  0.00    -0.234 NA
ATOM     14  C   UNL     1      10.403  11.184   6.113  1.00  0.00     0.155 C 
BRANCH  12  15
ATOM     15  C   UNL     1       8.282  14.154   0.667  1.00  0.00     0.019 A 
ATOM     16  C   UNL     1       6.993  14.052   0.136  1.00  0.00     0.012 A 
ATOM     17  C   UNL     1       9.260  14.872  -0.028  1.00  0.00     0.012 A 
ATOM     18  C   UNL     1       6.685  14.661  -1.081  1.00  0.00     0.001 A 
ATOM     19  C   UNL     1       8.951  15.480  -1.244  1.00  0.00     0.001 A 
ATOM     20  C   UNL     1       7.664  15.376  -1.771  1.00  0.00     0.000 A 
ENDBRANCH  12  15
ENDBRANCH   3   4
ENDBRANCH   2   3
BRANCH   2  21
ATOM     21  N   UNL     1       4.999  14.570   7.098  1.00  0.00    -0.337 N 
BRANCH  21  22
ATOM     22  C   UNL     1       3.767  15.353   7.157  1.00  0.00     0.155 C 
BRANCH  22  23
ATOM     23  C   UNL     1       2.660  14.717   6.368  1.00  0.00    -0.029 A 
ATOM     24  C   UNL     1       1.743  15.520   5.699  1.00  0.00     0.005 A 
ATOM     25  C   UNL     1       2.561  13.331   6.315  1.00  0.00     0.005 A 
ATOM     26  C   UNL     1       0.714  14.930   4.965  1.00  0.00     0.000 A 
ATOM     27  C   UNL     1       1.531  12.741   5.581  1.00  0.00     0.000 A 
ATOM     28  C   UNL     1       0.608  13.539   4.907  1.00  0.00     0.000 A 
ENDBRANCH  22  23
ENDBRANCH  21  22
BRANCH  21  29
ATOM     29  C   UNL     1       5.361  13.885   8.332  1.00  0.00     0.116 C 
ATOM     30  C   UNL     1       4.599  14.439   9.518  1.00  0.00     0.027 C 
ENDBRANCH  21  29
ENDBRANCH   2  21
TORSDOF 7
ENDMDL
MODEL 3
REMARK VINA RESULT:    -6.135      1.596      6.079
REMARK INTER + INTRA:         -10.071
REMARK INTER:                  -8.844
REMARK INTRA:                  -1.228
REMARK UNBOUND:                -1.426
REMARK SMILES CCN(Cc1ccccc1)C(=O)Cn1c(=O)n(C)c2cnc(-c3ccccc3)nc21
REMARK SMILES IDX 12 1 11 2 13 3 14 4 16 5 15 6 17 7 30 8 19 9 29 10 20 11
REMARK SMILES IDX 22 12 21 13 18 14 23 15 24 16 28 17 25 18 27 19 26 20 3 21
REMARK SMILES IDX 4 22 5 23 6 24 10 25 7 26 9 27 8 28 2 29 1 30
REMARK H PARENT
ROOT
ATOM      1  O   UNL     1       8.014  15.234   3.680  1.00  0.00    -0.273 OA
ATOM      2  C   UNL     1       8.283  14.116   3.234  1.00  0.00     0.243 C 
ENDROOT
BRANCH   2   3
ATOM      3  C   UNL     1       7.624  12.872   3.805  1.00  0.00     0.229 C 
BRANCH   3   4
ATOM      4  N   UNL     1       7.532  12.977   5.238  1.00  0.00    -0.267 N 
ATOM      5  O   UNL     1       9.734  12.451   5.953  1.00  0.00    -0.248 OA
ATOM      6  C   UNL     1       8.575  12.762   6.185  1.00  0.00     0.330 A 
ATOM      7  N   UNL     1       7.977  12.986   7.457  1.00  0.00    -0.292 N 
ATOM      8  C   UNL     1       6.349  13.318   5.916  1.00  0.00     0.165 A 
ATOM      9  C   UNL     1       6.634  13.320   7.269  1.00  0.00     0.107 A 
ATOM     10  N   UNL     1       5.146  13.597   5.399  1.00  0.00    -0.208 NA
ATOM     11  C   UNL     1       5.628  13.626   8.142  1.00  0.00     0.144 A 
ATOM     12  C   UNL     1       4.221  13.886   6.342  1.00  0.00     0.161 A 
ATOM     13  N   UNL     1       4.388  13.918   7.692  1.00  0.00    -0.234 NA
ATOM     14  C   UNL     1       8.647  12.885   8.729  1.00  0.00     0.155 C 
BRANCH  12  15
ATOM     15  C   UNL     1       2.899  14.197   5.862  1.00  0.00     0.019 A 
ATOM     16  C   UNL     1       2.063  13.178   5.396  1.00  0.00     0.012 A 
ATOM     17  C   UNL     1       2.443  15.518   5.863  1.00  0.00     0.012 A 
ATOM     18  C   UNL     1       0.781  13.479   4.934  1.00  0.00     0.001 A 
ATOM     19  C   UNL     1       1.162  15.818   5.400  1.00  0.00     0.001 A 
ATOM     20  C   UNL     1       0.330  14.799   4.936  1.00  0.00     0.000 A 
ENDBRANCH  12  15
ENDBRANCH   3   4
ENDBRANCH   2   3
BRANCH   2  21
ATOM     21  N   UNL     1       9.191  13.900   2.191  1.00  0.00    -0.337 N 
BRANCH  21  22
ATOM     22  C   UNL     1       9.254  14.768   1.017  1.00  0.00     0.155 C 
BRANCH  22  23
ATOM     23  C   UNL     1       7.902  14.979   0.402  1.00  0.00    -0.029 A 
ATOM     24  C   UNL     1       7.212  13.895  -0.130  1.00  0.00     0.005 A 
ATOM     25  C   UNL     1       7.351  16.255   0.368  1.00  0.00     0.005 A 
ATOM     26  C   UNL     1       5.955  14.090  -0.701  1.00  0.00     0.000 A 
ATOM     27  C   UNL     1       6.094  16.450  -0.204  1.00  0.00     0.000 A 
ATOM     28  C   UNL     1       5.396  15.368  -0.739  1.00  0.00     0.000 A 
ENDBRANCH  22  23
ENDBRANCH  21  22
BRANCH  21  29
ATOM     29  C   UNL     1      10.140  12.793   2.197  1.00  0.00     0.116 C 
ATOM     30  C   UNL     1      11.451  13.182   1.548  1.00  0.00     0.027 C 
ENDBRANCH  21  29
ENDBRANCH   2  21
TORSDOF 7
ENDMDL
MODEL 4
REMARK VINA RESULT:    -6.122      4.301      6.875
REMARK INTER + INTRA:         -10.054
REMARK INTER:                  -7.412
REMARK INTRA:                  -2.642
REMARK UNBOUND:                -1.426
REMARK SMILES CCN(Cc1ccccc1)C(=O)Cn1c(=O)n(C)c2cnc(-c3ccccc3)nc21
REMARK SMILES IDX 12 1 11 2 13 3 14 4 16 5 15 6 17 7 30 8 19 9 29 10 20 11
REMARK SMILES IDX 22 12 21 13 18 14 23 15 24 16 28 17 25 18 27 19 26 20 3 21
REMARK SMILES IDX 4 22 5 23 6 24 10 25 7 26 9 27 8 28 2 29 1 30
REMARK H PARENT
ROOT
ATOM      1  O   UNL     1      -0.808  18.153   7.419  1.00  0.00    -0.273 OA
ATOM      2  C   UNL     1       0.330  17.845   7.056  1.00  0.00     0.243 C 
ENDROOT
BRANCH   2   3
ATOM      3  C   UNL     1       1.526  18.086   7.961  1.00  0.00     0.229 C 
BRANCH   3   4
ATOM      4  N   UNL     1       1.759  16.932   8.788  1.00  0.00    -0.267 N 
ATOM      5  O   UNL     1       0.257  17.261  10.597  1.00  0.00    -0.248 OA
ATOM      6  C   UNL     1       1.119  16.613  10.021  1.00  0.00     0.330 A 
ATOM      7  N   UNL     1       1.698  15.381  10.437  1.00  0.00    -0.292 N 
ATOM      8  C   UNL     1       2.691  15.927   8.474  1.00  0.00     0.165 A 
ATOM      9  C   UNL     1       2.644  14.987   9.486  1.00  0.00     0.107 A 
ATOM     10  N   UNL     1       3.497  15.846   7.408  1.00  0.00    -0.208 NA
ATOM     11  C   UNL     1       3.470  13.902   9.402  1.00  0.00     0.144 A 
ATOM     12  C   UNL     1       4.274  14.739   7.417  1.00  0.00     0.161 A 
ATOM     13  N   UNL     1       4.311  13.754   8.355  1.00  0.00    -0.234 NA
ATOM     14  C   UNL     1       1.364  14.659  11.638  1.00  0.00     0.155 C 
BRANCH  12  15
ATOM     15  C   UNL     1       5.171  14.582   6.301  1.00  0.00     0.019 A 
ATOM     16  C   UNL     1       5.739  15.705   5.693  1.00  0.00     0.012 A 
ATOM     17  C   UNL     1       5.482  13.306   5.822  1.00  0.00     0.012 A 
ATOM     18  C   UNL     1       6.611  15.553   4.614  1.00  0.00     0.001 A 
ATOM     19  C   UNL     1       6.352  13.155   4.743  1.00  0.00     0.001 A 
ATOM     20  C   UNL     1       6.917  14.278   4.138  1.00  0.00     0.000 A 
ENDBRANCH  12  15
ENDBRANCH   3   4
ENDBRANCH   2   3
BRANCH   2  21
ATOM     21  N   UNL     1       0.612  17.261   5.816  1.00  0.00    -0.337 N 
BRANCH  21  22
ATOM     22  C   UNL     1      -0.164  16.143   5.284  1.00  0.00     0.155 C 
BRANCH  22  23
ATOM     23  C   UNL     1       0.360  14.820   5.761  1.00  0.00    -0.029 A 
ATOM     24  C   UNL     1      -0.118  14.279   6.949  1.00  0.00     0.005 A 
ATOM     25  C   UNL     1       1.319  14.148   5.012  1.00  0.00     0.005 A 
ATOM     26  C   UNL     1       0.368  13.050   7.394  1.00  0.00     0.000 A 
ATOM     27  C   UNL     1       1.806  12.918   5.457  1.00  0.00     0.000 A 
ATOM     28  C   UNL     1       1.331  12.369   6.647  1.00  0.00     0.000 A 
ENDBRANCH  22  23
ENDBRANCH  21  22
BRANCH  21  29
ATOM     29  C   UNL     1       1.700  17.724   4.964  1.00  0.00     0.116 C 
ATOM     30  C   UNL     1       1.337  19.008   4.248  1.00  0.00     0.027 C 
ENDBRANCH  21  29
ENDBRANCH   2  21
TORSDOF 7
ENDMDL
MODEL 5
REMARK VINA RESULT:    -6.060      1.805      5.514
REMARK INTER + INTRA:          -9.966
REMARK INTER:                  -7.770
REMARK INTRA:                  -2.196
REMARK UNBOUND:                -1.426
REMARK SMILES CCN(Cc1ccccc1)C(=O)Cn1c(=O)n(C)c2cnc(-c3ccccc3)nc21
REMARK SMILES IDX 12 1 11 2 13 3 14 4 16 5 15 6 17 7 30 8 19 9 29 10 20 11
REMARK SMILES IDX 22 12 21 13 18 14 23 15 24 16 28 17 25 18 27 19 26 20 3 21
REMARK SMILES IDX 4 22 5 23 6 24 10 25 7 26 9 27 8 28 2 29 1 30
REMARK H PARENT
ROOT
ATOM      1  O   UNL     1       9.952  13.120   2.821  1.00  0.00    -0.273 OA
ATOM      2  C   UNL     1       8.731  13.277   2.890  1.00  0.00     0.243 C 
ENDROOT
BRANCH   2   3
ATOM      3  C   UNL     1       7.866  12.304   3.673  1.00  0.00     0.229 C 
BRANCH   3   4
ATOM      4  N   UNL     1       7.874  12.652   5.070  1.00  0.00    -0.267 N 
ATOM      5  O   UNL     1      10.128  12.259   5.703  1.00  0.00    -0.248 OA
ATOM      6  C   UNL     1       8.984  12.604   5.962  1.00  0.00     0.330 A 
ATOM      7  N   UNL     1       8.475  13.041   7.218  1.00  0.00    -0.292 N 
ATOM      8  C   UNL     1       6.737  13.103   5.764  1.00  0.00     0.165 A 
ATOM      9  C   UNL     1       7.117  13.336   7.072  1.00  0.00     0.107 A 
ATOM     10  N   UNL     1       5.498  13.287   5.295  1.00  0.00    -0.208 NA
ATOM     11  C   UNL     1       6.172  13.786   7.951  1.00  0.00     0.144 A 
ATOM     12  C   UNL     1       4.637  13.733   6.240  1.00  0.00     0.161 A 
ATOM     13  N   UNL     1       4.899  13.996   7.548  1.00  0.00    -0.234 NA
ATOM     14  C   UNL     1       9.235  13.161   8.436  1.00  0.00     0.155 C 
BRANCH  12  15
ATOM     15  C   UNL     1       3.280  13.955   5.810  1.00  0.00     0.019 A 
ATOM     16  C   UNL     1       2.481  12.877   5.420  1.00  0.00     0.012 A 
ATOM     17  C   UNL     1       2.754  15.250   5.785  1.00  0.00     0.012 A 
ATOM     18  C   UNL     1       1.166  13.092   5.007  1.00  0.00     0.001 A 
ATOM     19  C   UNL     1       1.439  15.464   5.371  1.00  0.00     0.001 A 
ATOM     20  C   UNL     1       0.645  14.385   4.982  1.00  0.00     0.000 A 
ENDBRANCH  12  15
ENDBRANCH   3   4
ENDBRANCH   2   3
BRANCH   2  21
ATOM     21  N   UNL     1       8.052  14.334   2.272  1.00  0.00    -0.337 N 
BRANCH  21  22
ATOM     22  C   UNL     1       8.368  15.733   2.548  1.00  0.00     0.155 C 
BRANCH  22  23
ATOM     23  C   UNL     1       7.834  16.176   3.879  1.00  0.00    -0.029 A 
ATOM     24  C   UNL     1       6.495  16.527   4.000  1.00  0.00     0.005 A 
ATOM     25  C   UNL     1       8.684  16.232   4.978  1.00  0.00     0.005 A 
ATOM     26  C   UNL     1       5.998  16.939   5.237  1.00  0.00     0.000 A 
ATOM     27  C   UNL     1       8.187  16.644   6.215  1.00  0.00     0.000 A 
ATOM     28  C   UNL     1       6.844  16.998   6.344  1.00  0.00     0.000 A 
ENDBRANCH  22  23
ENDBRANCH  21  22
BRANCH  21  29
ATOM     29  C   UNL     1       6.980  14.116   1.308  1.00  0.00     0.116 C 
ATOM     30  C   UNL     1       7.488  14.204  -0.116  1.00  0.00     0.027 C 
ENDBRANCH  21  29
ENDBRANCH   2  21
TORSDOF 7
ENDMDL
MODEL 6
REMARK VINA RESULT:    -5.956      1.693      2.353
REMARK INTER + INTRA:          -9.820
REMARK INTER:                  -8.320
REMARK INTRA:                  -1.500
REMARK UNBOUND:                -1.426
REMARK SMILES CCN(Cc1ccccc1)C(=O)Cn1c(=O)n(C)c2cnc(-c3ccccc3)nc21
REMARK SMILES IDX 12 1 11 2 13 3 14 4 16 5 15 6 17 7 30 8 19 9 29 10 20 11
REMARK SMILES IDX 22 12 21 13 18 14 23 15 24 16 28 17 25 18 27 19 26 20 3 21
REMARK SMILES IDX 4 22 5 23 6 24 10 25 7 26 9 27 8 28 2 29 1 30
REMARK H PARENT
ROOT
ATOM      1  O   UNL     1       4.388  13.694   8.878  1.00  0.00    -0.273 OA
ATOM      2  C   UNL     1       4.960  14.621   8.300  1.00  0.00     0.243 C 
ENDROOT
BRANCH   2   3
ATOM      3  C   UNL     1       6.475  14.734   8.321  1.00  0.00     0.229 C 
BRANCH   3   4
ATOM      4  N   UNL     1       7.067  13.503   7.869  1.00  0.00    -0.267 N 
ATOM      5  O   UNL     1       7.309  12.259   9.877  1.00  0.00    -0.248 OA
ATOM      6  C   UNL     1       7.433  12.380   8.666  1.00  0.00     0.330 A 
ATOM      7  N   UNL     1       7.973  11.431   7.753  1.00  0.00    -0.292 N 
ATOM      8  C   UNL     1       7.376  13.239   6.523  1.00  0.00     0.165 A 
ATOM      9  C   UNL     1       7.928  11.973   6.466  1.00  0.00     0.107 A 
ATOM     10  N   UNL     1       7.193  14.030   5.459  1.00  0.00    -0.208 NA
ATOM     11  C   UNL     1       8.313  11.489   5.247  1.00  0.00     0.144 A 
ATOM     12  C   UNL     1       7.605  13.462   4.302  1.00  0.00     0.161 A 
ATOM     13  N   UNL     1       8.159  12.231   4.129  1.00  0.00    -0.234 NA
ATOM     14  C   UNL     1       8.481  10.128   8.098  1.00  0.00     0.155 C 
BRANCH  12  15
ATOM     15  C   UNL     1       7.441  14.254   3.110  1.00  0.00     0.019 A 
ATOM     16  C   UNL     1       7.415  13.639   1.855  1.00  0.00     0.012 A 
ATOM     17  C   UNL     1       7.303  15.642   3.202  1.00  0.00     0.012 A 
ATOM     18  C   UNL     1       7.253  14.405   0.701  1.00  0.00     0.001 A 
ATOM     19  C   UNL     1       7.142  16.407   2.047  1.00  0.00     0.001 A 
ATOM     20  C   UNL     1       7.117  15.790   0.797  1.00  0.00     0.000 A 
ENDBRANCH  12  15
ENDBRANCH   3   4
ENDBRANCH   2   3
BRANCH   2  21
ATOM     21  N   UNL     1       4.283  15.622   7.592  1.00  0.00    -0.337 N 
BRANCH  21  22
ATOM     22  C   UNL     1       4.126  15.581   6.140  1.00  0.00     0.155 C 
BRANCH  22  23
ATOM     23  C   UNL     1       2.902  14.817   5.730  1.00  0.00    -0.029 A 
ATOM     24  C   UNL     1       2.962  13.433   5.611  1.00  0.00     0.005 A 
ATOM     25  C   UNL     1       1.719  15.500   5.470  1.00  0.00     0.005 A 
ATOM     26  C   UNL     1       1.825  12.722   5.229  1.00  0.00     0.000 A 
ATOM     27  C   UNL     1       0.581  14.788   5.089  1.00  0.00     0.000 A 
ATOM     28  C   UNL     1       0.634  13.400   4.967  1.00  0.00     0.000 A 
ENDBRANCH  22  23
ENDBRANCH  21  22
BRANCH  21  29
ATOM     29  C   UNL     1       3.688  16.778   8.251  1.00  0.00     0.116 C 
ATOM     30  C   UNL     1       4.326  18.071   7.788  1.00  0.00     0.027 C 
ENDBRANCH  21  29
ENDBRANCH   2  21
TORSDOF 7
ENDMDL
MODEL 7
REMARK VINA RESULT:    -5.914      2.360      3.783
REMARK INTER + INTRA:          -9.760
REMARK INTER:                  -8.298
REMARK INTRA:                  -1.463
REMARK UNBOUND:                -1.426
REMARK SMILES CCN(Cc1ccccc1)C(=O)Cn1c(=O)n(C)c2cnc(-c3ccccc3)nc21
REMARK SMILES IDX 12 1 11 2 13 3 14 4 16 5 15 6 17 7 30 8 19 9 29 10 20 11
REMARK SMILES IDX 22 12 21 13 18 14 23 15 24 16 28 17 25 18 27 19 26 20 3 21
REMARK SMILES IDX 4 22 5 23 6 24 10 25 7 26 9 27 8 28 2 29 1 30
REMARK H PARENT
ROOT
ATOM      1  O   UNL     1       4.306  13.558   8.964  1.00  0.00    -0.273 OA
ATOM      2  C   UNL     1       5.124  14.370   8.523  1.00  0.00     0.243 C 
ENDROOT
BRANCH   2   3
ATOM      3  C   UNL     1       6.556  14.382   9.029  1.00  0.00     0.229 C 
BRANCH   3   4
ATOM      4  N   UNL     1       7.086  13.044   9.039  1.00  0.00    -0.267 N 
ATOM      5  O   UNL     1       6.813  12.379  11.302  1.00  0.00    -0.248 OA
ATOM      6  C   UNL     1       7.174  12.161  10.154  1.00  0.00     0.330 A 
ATOM      7  N   UNL     1       7.770  10.972   9.646  1.00  0.00    -0.292 N 
ATOM      8  C   UNL     1       7.612  12.409   7.900  1.00  0.00     0.165 A 
ATOM      9  C   UNL     1       8.025  11.147   8.284  1.00  0.00     0.107 A 
ATOM     10  N   UNL     1       7.717  12.890   6.656  1.00  0.00    -0.208 NA
ATOM     11  C   UNL     1       8.577  10.331   7.336  1.00  0.00     0.144 A 
ATOM     12  C   UNL     1       8.275  12.009   5.794  1.00  0.00     0.161 A 
ATOM     13  N   UNL     1       8.715  10.749   6.059  1.00  0.00    -0.234 NA
ATOM     14  C   UNL     1       8.061   9.786  10.410  1.00  0.00     0.155 C 
BRANCH  12  15
ATOM     15  C   UNL     1       8.423  12.456   4.433  1.00  0.00     0.019 A 
ATOM     16  C   UNL     1       7.328  12.986   3.744  1.00  0.00     0.012 A 
ATOM     17  C   UNL     1       9.663  12.367   3.794  1.00  0.00     0.012 A 
ATOM     18  C   UNL     1       7.471  13.421   2.427  1.00  0.00     0.001 A 
ATOM     19  C   UNL     1       9.805  12.802   2.477  1.00  0.00     0.001 A 
ATOM     20  C   UNL     1       8.711  13.329   1.793  1.00  0.00     0.000 A 
ENDBRANCH  12  15
ENDBRANCH   3   4
ENDBRANCH   2   3
BRANCH   2  21
ATOM     21  N   UNL     1       4.814  15.322   7.546  1.00  0.00    -0.337 N 
BRANCH  21  22
ATOM     22  C   UNL     1       4.716  14.984   6.128  1.00  0.00     0.155 C 
BRANCH  22  23
ATOM     23  C   UNL     1       3.340  14.511   5.759  1.00  0.00    -0.029 A 
ATOM     24  C   UNL     1       2.315  15.436   5.599  1.00  0.00     0.005 A 
ATOM     25  C   UNL     1       3.104  13.153   5.581  1.00  0.00     0.005 A 
ATOM     26  C   UNL     1       1.036  14.998   5.255  1.00  0.00     0.000 A 
ATOM     27  C   UNL     1       1.825  12.714   5.237  1.00  0.00     0.000 A 
ATOM     28  C   UNL     1       0.791  13.636   5.075  1.00  0.00     0.000 A 
ENDBRANCH  22  23
ENDBRANCH  21  22
BRANCH  21  29
ATOM     29  C   UNL     1       4.569  16.722   7.870  1.00  0.00     0.116 C 
ATOM     30  C   UNL     1       3.469  16.870   8.900  1.00  0.00     0.027 C 
ENDBRANCH  21  29
ENDBRANCH   2  21
TORSDOF 7
ENDMDL
MODEL 8
REMARK VINA RESULT:    -5.898      2.678      5.950
REMARK INTER + INTRA:          -9.738
REMARK INTER:                  -8.528
REMARK INTRA:                  -1.210
REMARK UNBOUND:                -1.426
REMARK SMILES CCN(Cc1ccccc1)C(=O)Cn1c(=O)n(C)c2cnc(-c3ccccc3)nc21
REMARK SMILES IDX 12 1 11 2 13 3 14 4 16 5 15 6 17 7 30 8 19 9 29 10 20 11
REMARK SMILES IDX 22 12 21 13 18 14 23 15 24 16 28 17 25 18 27 19 26 20 3 21
REMARK SMILES IDX 4 22 5 23 6 24 10 25 7 26 9 27 8 28 2 29 1 30
REMARK H PARENT
ROOT
ATOM      1  O   UNL     1       7.348  14.150   7.474  1.00  0.00    -0.273 OA
ATOM      2  C   UNL     1       6.553  13.995   6.545  1.00  0.00     0.243 C 
ENDROOT
BRANCH   2   3
ATOM      3  C   UNL     1       6.599  12.745   5.682  1.00  0.00     0.229 C 
BRANCH   3   4
ATOM      4  N   UNL     1       7.965  12.391   5.401  1.00  0.00    -0.267 N 
ATOM      5  O   UNL     1       8.557  13.892   3.659  1.00  0.00    -0.248 OA
ATOM      6  C   UNL     1       8.824  12.980   4.429  1.00  0.00     0.330 A 
ATOM      7  N   UNL     1      10.058  12.280   4.544  1.00  0.00    -0.292 N 
ATOM      8  C   UNL     1       8.658  11.372   6.078  1.00  0.00     0.165 A 
ATOM      9  C   UNL     1       9.933  11.315   5.547  1.00  0.00     0.107 A 
ATOM     10  N   UNL     1       8.215  10.577   7.059  1.00  0.00    -0.208 NA
ATOM     11  C   UNL     1      10.803  10.389   6.050  1.00  0.00     0.144 A 
ATOM     12  C   UNL     1       9.149   9.698   7.489  1.00  0.00     0.161 A 
ATOM     13  N   UNL     1      10.425   9.553   7.042  1.00  0.00    -0.234 NA
ATOM     14  C   UNL     1      11.241  12.527   3.759  1.00  0.00     0.155 C 
BRANCH  12  15
ATOM     15  C   UNL     1       8.745   8.806   8.545  1.00  0.00     0.019 A 
ATOM     16  C   UNL     1       9.665   7.913   9.102  1.00  0.00     0.012 A 
ATOM     17  C   UNL     1       7.431   8.830   9.022  1.00  0.00     0.012 A 
ATOM     18  C   UNL     1       9.275   7.051  10.127  1.00  0.00     0.001 A 
ATOM     19  C   UNL     1       7.042   7.967  10.047  1.00  0.00     0.001 A 
ATOM     20  C   UNL     1       7.962   7.078  10.600  1.00  0.00     0.000 A 
ENDBRANCH  12  15
ENDBRANCH   3   4
ENDBRANCH   2   3
BRANCH   2  21
ATOM     21  N   UNL     1       5.564  14.928   6.213  1.00  0.00    -0.337 N 
BRANCH  21  22
ATOM     22  C   UNL     1       4.344  15.088   7.000  1.00  0.00     0.155 C 
BRANCH  22  23
ATOM     23  C   UNL     1       3.130  14.610   6.258  1.00  0.00    -0.029 A 
ATOM     24  C   UNL     1       3.014  13.265   5.924  1.00  0.00     0.005 A 
ATOM     25  C   UNL     1       2.134  15.515   5.911  1.00  0.00     0.005 A 
ATOM     26  C   UNL     1       1.887  12.820   5.235  1.00  0.00     0.000 A 
ATOM     27  C   UNL     1       1.006  15.069   5.221  1.00  0.00     0.000 A 
ATOM     28  C   UNL     1       0.883  13.722   4.882  1.00  0.00     0.000 A 
ENDBRANCH  22  23
ENDBRANCH  21  22
BRANCH  21  29
ATOM     29  C   UNL     1       5.677  15.808   5.056  1.00  0.00     0.116 C 
ATOM     30  C   UNL     1       6.959  16.613   5.094  1.00  0.00     0.027 C 
ENDBRANCH  21  29
ENDBRANCH   2  21
TORSDOF 7
ENDMDL
MODEL 9
REMARK VINA RESULT:    -5.880      6.650      9.731
REMARK INTER + INTRA:          -9.713
REMARK INTER:                  -7.590
REMARK INTRA:                  -2.124
REMARK UNBOUND:                -1.426
REMARK SMILES CCN(Cc1ccccc1)C(=O)Cn1c(=O)n(C)c2cnc(-c3ccccc3)nc21
REMARK SMILES IDX 12 1 11 2 13 3 14 4 16 5 15 6 17 7 30 8 19 9 29 10 20 11
REMARK SMILES IDX 22 12 21 13 18 14 23 15 24 16 28 17 25 18 27 19 26 20 3 21
REMARK SMILES IDX 4 22 5 23 6 24 10 25 7 26 9 27 8 28 2 29 1 30
REMARK H PARENT
ROOT
ATOM      1  O   UNL     1      -2.314  19.213   9.600  1.00  0.00    -0.273 OA
ATOM      2  C   UNL     1      -1.967  18.035   9.487  1.00  0.00     0.243 C 
ENDROOT
BRANCH   2   3
ATOM      3  C   UNL     1      -2.820  17.044   8.713  1.00  0.00     0.229 C 
BRANCH   3   4
ATOM      4  N   UNL     1      -2.899  17.436   7.331  1.00  0.00    -0.267 N 
ATOM      5  O   UNL     1      -4.819  18.830   7.280  1.00  0.00    -0.248 OA
ATOM      6  C   UNL     1      -3.874  18.283   6.730  1.00  0.00     0.330 A 
ATOM      7  N   UNL     1      -3.514  18.355   5.355  1.00  0.00    -0.292 N 
ATOM      8  C   UNL     1      -1.983  17.012   6.350  1.00  0.00     0.165 A 
ATOM      9  C   UNL     1      -2.370  17.580   5.151  1.00  0.00     0.107 A 
ATOM     10  N   UNL     1      -0.921  16.212   6.498  1.00  0.00    -0.208 NA
ATOM     11  C   UNL     1      -1.624  17.311   4.038  1.00  0.00     0.144 A 
ATOM     12  C   UNL     1      -0.250  16.007   5.341  1.00  0.00     0.161 A 
ATOM     13  N   UNL     1      -0.538  16.511   4.110  1.00  0.00    -0.234 NA
ATOM     14  C   UNL     1      -4.213  19.103   4.342  1.00  0.00     0.155 C 
BRANCH  12  15
ATOM     15  C   UNL     1       0.907  15.153   5.419  1.00  0.00     0.019 A 
ATOM     16  C   UNL     1       0.791  13.785   5.153  1.00  0.00     0.012 A 
ATOM     17  C   UNL     1       2.154  15.687   5.756  1.00  0.00     0.012 A 
ATOM     18  C   UNL     1       1.912  12.959   5.226  1.00  0.00     0.001 A 
ATOM     19  C   UNL     1       3.274  14.859   5.830  1.00  0.00     0.001 A 
ATOM     20  C   UNL     1       3.154  13.495   5.564  1.00  0.00     0.000 A 
ENDBRANCH  12  15
ENDBRANCH   3   4
ENDBRANCH   2   3
BRANCH   2  21
ATOM     21  N   UNL     1      -0.789  17.522  10.043  1.00  0.00    -0.337 N 
BRANCH  21  22
ATOM     22  C   UNL     1      -0.766  16.284  10.819  1.00  0.00     0.155 C 
BRANCH  22  23
ATOM     23  C   UNL     1       0.394  15.409  10.446  1.00  0.00    -0.029 A 
ATOM     24  C   UNL     1       0.399  14.760   9.217  1.00  0.00     0.005 A 
ATOM     25  C   UNL     1       1.454  15.255  11.333  1.00  0.00     0.005 A 
ATOM     26  C   UNL     1       1.476  13.946   8.869  1.00  0.00     0.000 A 
ATOM     27  C   UNL     1       2.532  14.441  10.985  1.00  0.00     0.000 A 
ATOM     28  C   UNL     1       2.544  13.786   9.754  1.00  0.00     0.000 A 
ENDBRANCH  22  23
ENDBRANCH  21  22
BRANCH  21  29
ATOM     29  C   UNL     1       0.500  18.184   9.889  1.00  0.00     0.116 C 
ATOM     30  C   UNL     1       0.839  19.028  11.100  1.00  0.00     0.027 C 
ENDBRANCH  21  29
ENDBRANCH   2  21
TORSDOF 7
ENDMDL
MODEL 10
REMARK VINA RESULT:    -5.643      1.787      3.609
REMARK INTER + INTRA:          -9.378
REMARK INTER:                  -6.355
REMARK INTRA:                  -3.024
REMARK UNBOUND:                -1.426
REMARK SMILES CCN(Cc1ccccc1)C(=O)Cn1c(=O)n(C)c2cnc(-c3ccccc3)nc21
REMARK SMILES IDX 12 1 11 2 13 3 14 4 16 5 15 6 17 7 30 8 19 9 29 10 20 11
REMARK SMILES IDX 22 12 21 13 18 14 23 15 24 16 28 17 25 18 27 19 26 20 3 21
REMARK SMILES IDX 4 22 5 23 6 24 10 25 7 26 9 27 8 28 2 29 1 30
REMARK H PARENT
ROOT
ATOM      1  O   UNL     1       8.373  13.387   7.625  1.00  0.00    -0.273 OA
ATOM      2  C   UNL     1       7.740  13.016   6.634  1.00  0.00     0.243 C 
ENDROOT
BRANCH   2   3
ATOM      3  C   UNL     1       8.021  11.669   5.991  1.00  0.00     0.229 C 
BRANCH   3   4
ATOM      4  N   UNL     1       9.350  11.655   5.437  1.00  0.00    -0.267 N 
ATOM      5  O   UNL     1      10.611  10.532   7.106  1.00  0.00    -0.248 OA
ATOM      6  C   UNL     1      10.522  11.099   6.027  1.00  0.00     0.330 A 
ATOM      7  N   UNL     1      11.566  11.344   5.090  1.00  0.00    -0.292 N 
ATOM      8  C   UNL     1       9.677  12.216   4.190  1.00  0.00     0.165 A 
ATOM      9  C   UNL     1      11.030  12.020   3.990  1.00  0.00     0.107 A 
ATOM     10  N   UNL     1       8.869  12.835   3.321  1.00  0.00    -0.208 NA
ATOM     11  C   UNL     1      11.588  12.485   2.832  1.00  0.00     0.144 A 
ATOM     12  C   UNL     1       9.514  13.257   2.209  1.00  0.00     0.161 A 
ATOM     13  N   UNL     1      10.834  13.120   1.908  1.00  0.00    -0.234 NA
ATOM     14  C   UNL     1      12.945  10.960   5.249  1.00  0.00     0.155 C 
BRANCH  12  15
ATOM     15  C   UNL     1       8.710  13.935   1.225  1.00  0.00     0.019 A 
ATOM     16  C   UNL     1       9.317  14.709   0.233  1.00  0.00     0.012 A 
ATOM     17  C   UNL     1       7.317  13.819   1.255  1.00  0.00     0.012 A 
ATOM     18  C   UNL     1       8.539  15.363  -0.722  1.00  0.00     0.001 A 
ATOM     19  C   UNL     1       6.539  14.474   0.300  1.00  0.00     0.001 A 
ATOM     20  C   UNL     1       7.149  15.246  -0.689  1.00  0.00     0.000 A 
ENDBRANCH  12  15
ENDBRANCH   3   4
ENDBRANCH   2   3
BRANCH   2  21
ATOM     21  N   UNL     1       6.733  13.780   6.032  1.00  0.00    -0.337 N 
BRANCH  21  22
ATOM     22  C   UNL     1       6.669  15.233   6.166  1.00  0.00     0.155 C 
BRANCH  22  23
ATOM     23  C   UNL     1       7.252  15.932   4.973  1.00  0.00    -0.029 A 
ATOM     24  C   UNL     1       6.407  16.512   4.034  1.00  0.00     0.005 A 
ATOM     25  C   UNL     1       8.632  15.993   4.817  1.00  0.00     0.005 A 
ATOM     26  C   UNL     1       6.948  17.162   2.925  1.00  0.00     0.000 A 
ATOM     27  C   UNL     1       9.174  16.644   3.708  1.00  0.00     0.000 A 
ATOM     28  C   UNL     1       8.332  17.228   2.761  1.00  0.00     0.000 A 
ENDBRANCH  22  23
ENDBRANCH  21  22
BRANCH  21  29
ATOM     29  C   UNL     1       5.673  13.182   5.228  1.00  0.00     0.116 C 
ATOM     30  C   UNL     1       4.304  13.627   5.695  1.00  0.00     0.027 C 
ENDBRANCH  21  29
ENDBRANCH   2  21
TORSDOF 7
ENDMDL
