MODEL 1
REMARK VINA RESULT:    -6.100      0.000      0.000
REMARK INTER + INTRA:          -9.553
REMARK INTER:                  -8.240
REMARK INTRA:                  -1.313
REMARK UNBOUND:                -1.313
REMARK  Name = 6433109
REMARK  8 active torsions:
REMARK  status: ('A' for Active; 'I' for Inactive)
REMARK    1  A    between atoms: N_3  and  C_8
REMARK    2  A    between atoms: N_4  and  C_15
REMARK    3  A    between atoms: N_5  and  C_13
REMARK    4  A    between atoms: N_5  and  C_14
REMARK    5  A    between atoms: C_8  and  C_12
REMARK    6  A    between atoms: C_13  and  C_17
REMARK    7  A    between atoms: C_14  and  C_19
REMARK    8  A    between atoms: C_18  and  C_20
REMARK                            x       y       z     vdW  Elec       q    Type
REMARK                         _______ _______ _______ _____ _____    ______ ____
ROOT
ATOM      1  O   UNL     1      10.532  12.187   3.776  0.00  0.00    -0.246 OA
ATOM      2  N   UNL     1       8.252  12.847   3.731  0.00  0.00    -0.268 N 
ATOM      3  N   UNL     1       9.231  12.484   5.740  0.00  0.00    -0.292 N 
ATOM      4  N   UNL     1       6.016  13.457   4.585  0.00  0.00    -0.208 NA
ATOM      5  N   UNL     1       5.865  13.403   7.016  0.00  0.00    -0.233 NA
ATOM      6  C   UNL     1       7.292  13.084   4.731  0.00  0.00    +0.165 A 
ATOM      7  C   UNL     1       7.902  12.859   5.951  0.00  0.00    +0.107 A 
ATOM      8  C   UNL     1       9.483  12.467   4.339  0.00  0.00    +0.332 A 
ATOM      9  C   UNL     1      10.188  12.168   6.769  0.00  0.00    +0.154 C 
ATOM     10  C   UNL     1       7.160  13.027   7.087  0.00  0.00    +0.142 A 
ATOM     11  C   UNL     1       5.368  13.597   5.765  0.00  0.00    +0.162 A 
ENDROOT
BRANCH  11  12
ATOM     12  C   UNL     1       3.986  13.997   5.689  0.00  0.00    +0.019 A 
ATOM     13  C   UNL     1       2.994  13.051   5.415  0.00  0.00    +0.011 A 
ATOM     14  C   UNL     1       3.629  15.333   5.892  0.00  0.00    +0.011 A 
ATOM     15  C   UNL     1       1.656  13.437   5.344  0.00  0.00    +0.001 A 
ATOM     16  C   UNL     1       2.290  15.718   5.820  0.00  0.00    +0.001 A 
ATOM     17  C   UNL     1       1.303  14.772   5.547  0.00  0.00    +0.000 A 
ENDBRANCH  11  12
BRANCH   2  18
ATOM     18  C   UNL     1       7.981  12.980   2.324  0.00  0.00    +0.224 C 
BRANCH  18  21
ATOM     19  O   UNL     1       9.171  15.056   2.462  0.00  0.00    -0.274 OA
ATOM     20  N   UNL     1       7.657  14.834   0.718  0.00  0.00    -0.296 N 
ATOM     21  C   UNL     1       8.335  14.381   1.856  0.00  0.00    +0.236 C 
BRANCH  20  22
ATOM     22  C   UNL     1       6.672  14.016   0.020  0.00  0.00    +0.105 C 
ATOM     23  C   UNL     1       6.981  13.917  -1.459  0.00  0.00    +0.024 C 
ENDBRANCH  20  22
BRANCH  20  24
ATOM     24  C   UNL     1       7.885  16.159   0.148  0.00  0.00    +0.142 C 
BRANCH  24  25
ATOM     25  C   UNL     1       6.764  17.106   0.463  0.00  0.00    -0.030 A 
ATOM     26  C   UNL     1       6.702  17.706   1.716  0.00  0.00    +0.005 A 
ATOM     27  C   UNL     1       5.797  17.373  -0.499  0.00  0.00    +0.005 A 
ATOM     28  C   UNL     1       5.661  18.586   2.010  0.00  0.00    +0.000 A 
ATOM     29  C   UNL     1       4.755  18.254  -0.204  0.00  0.00    +0.000 A 
ATOM     30  C   UNL     1       4.687  18.859   1.050  0.00  0.00    +0.000 A 
ENDBRANCH  24  25
ENDBRANCH  20  24
ENDBRANCH  18  21
ENDBRANCH   2  18
TORSDOF 6
ENDMDL
MODEL 2
REMARK VINA RESULT:    -5.995      1.527      2.521
REMARK INTER + INTRA:          -9.411
REMARK INTER:                  -8.625
REMARK INTRA:                  -0.786
REMARK UNBOUND:                -1.313
REMARK  Name = 6433109
REMARK  8 active torsions:
REMARK  status: ('A' for Active; 'I' for Inactive)
REMARK    1  A    between atoms: N_3  and  C_8
REMARK    2  A    between atoms: N_4  and  C_15
REMARK    3  A    between atoms: N_5  and  C_13
REMARK    4  A    between atoms: N_5  and  C_14
REMARK    5  A    between atoms: C_8  and  C_12
REMARK    6  A    between atoms: C_13  and  C_17
REMARK    7  A    between atoms: C_14  and  C_19
REMARK    8  A    between atoms: C_18  and  C_20
REMARK                            x       y       z     vdW  Elec       q    Type
REMARK                         _______ _______ _______ _____ _____    ______ ____
ROOT
ATOM      1  O   UNL     1       9.836  12.638   6.554  0.00  0.00    -0.246 OA
ATOM      2  N   UNL     1       7.639  12.919   5.697  0.00  0.00    -0.268 N 
ATOM      3  N   UNL     1       7.998  13.314   7.897  0.00  0.00    -0.292 N 
ATOM      4  N   UNL     1       5.222  13.425   5.683  0.00  0.00    -0.208 NA
ATOM      5  N   UNL     1       4.361  14.075   7.869  0.00  0.00    -0.233 NA
ATOM      6  C   UNL     1       6.415  13.301   6.275  0.00  0.00    +0.165 A 
ATOM      7  C   UNL     1       6.648  13.539   7.616  0.00  0.00    +0.107 A 
ATOM      8  C   UNL     1       8.654  12.919   6.697  0.00  0.00    +0.332 A 
ATOM      9  C   UNL     1       8.623  13.459   9.187  0.00  0.00    +0.154 C 
ATOM     10  C   UNL     1       5.596  13.928   8.397  0.00  0.00    +0.142 A 
ATOM     11  C   UNL     1       4.247  13.814   6.538  0.00  0.00    +0.162 A 
ENDROOT
BRANCH  11  12
ATOM     12  C   UNL     1       2.931  13.969   5.975  0.00  0.00    +0.019 A 
ATOM     13  C   UNL     1       2.231  12.854   5.506  0.00  0.00    +0.011 A 
ATOM     14  C   UNL     1       2.345  15.236   5.897  0.00  0.00    +0.011 A 
ATOM     15  C   UNL     1       0.954  13.004   4.963  0.00  0.00    +0.001 A 
ATOM     16  C   UNL     1       1.069  15.385   5.352  0.00  0.00    +0.001 A 
ATOM     17  C   UNL     1       0.373  14.270   4.886  0.00  0.00    +0.000 A 
ENDBRANCH  11  12
BRANCH   2  18
ATOM     18  C   UNL     1       7.791  12.587   4.305  0.00  0.00    +0.224 C 
BRANCH  18  21
ATOM     19  O   UNL     1       7.428  14.909   3.833  0.00  0.00    -0.274 OA
ATOM     20  N   UNL     1       8.752  13.732   2.334  0.00  0.00    -0.296 N 
ATOM     21  C   UNL     1       7.963  13.854   3.484  0.00  0.00    +0.236 C 
BRANCH  20  22
ATOM     22  C   UNL     1       9.373  12.473   1.942  0.00  0.00    +0.105 C 
ATOM     23  C   UNL     1      10.855  12.464   2.255  0.00  0.00    +0.024 C 
ENDBRANCH  20  22
BRANCH  20  24
ATOM     24  C   UNL     1       9.009  14.859   1.440  0.00  0.00    +0.142 C 
BRANCH  24  25
ATOM     25  C   UNL     1       7.774  15.281   0.700  0.00  0.00    -0.030 A 
ATOM     26  C   UNL     1       7.033  14.334   0.002  0.00  0.00    +0.005 A 
ATOM     27  C   UNL     1       7.383  16.615   0.717  0.00  0.00    +0.005 A 
ATOM     28  C   UNL     1       5.885  14.725  -0.686  0.00  0.00    +0.000 A 
ATOM     29  C   UNL     1       6.234  17.006   0.028  0.00  0.00    +0.000 A 
ATOM     30  C   UNL     1       5.485  16.062  -0.674  0.00  0.00    +0.000 A 
ENDBRANCH  24  25
ENDBRANCH  20  24
ENDBRANCH  18  21
ENDBRANCH   2  18
TORSDOF 6
ENDMDL
MODEL 3
REMARK VINA RESULT:    -5.967      6.925      9.885
REMARK INTER + INTRA:          -9.373
REMARK INTER:                  -6.589
REMARK INTRA:                  -2.784
REMARK UNBOUND:                -1.313
REMARK  Name = 6433109
REMARK  8 active torsions:
REMARK  status: ('A' for Active; 'I' for Inactive)
REMARK    1  A    between atoms: N_3  and  C_8
REMARK    2  A    between atoms: N_4  and  C_15
REMARK    3  A    between atoms: N_5  and  C_13
REMARK    4  A    between atoms: N_5  and  C_14
REMARK    5  A    between atoms: C_8  and  C_12
REMARK    6  A    between atoms: C_13  and  C_17
REMARK    7  A    between atoms: C_14  and  C_19
REMARK    8  A    between atoms: C_18  and  C_20
REMARK                            x       y       z     vdW  Elec       q    Type
REMARK                         _______ _______ _______ _____ _____    ______ ____
ROOT
ATOM      1  O   UNL     1      -3.645  19.083   9.746  0.00  0.00    -0.246 OA
ATOM      2  N   UNL     1      -1.654  17.978   9.073  0.00  0.00    -0.268 N 
ATOM      3  N   UNL     1      -2.458  17.583  11.153  0.00  0.00    -0.292 N 
ATOM      4  N   UNL     1       0.322  16.503   9.222  0.00  0.00    -0.208 NA
ATOM      5  N   UNL     1       0.517  15.366  11.368  0.00  0.00    -0.233 NA
ATOM      6  C   UNL     1      -0.789  17.068   9.708  0.00  0.00    +0.165 A 
ATOM      7  C   UNL     1      -1.291  16.835  10.974  0.00  0.00    +0.107 A 
ATOM      8  C   UNL     1      -2.714  18.320   9.962  0.00  0.00    +0.332 A 
ATOM      9  C   UNL     1      -3.268  17.604  12.344  0.00  0.00    +0.154 C 
ATOM     10  C   UNL     1      -0.614  15.973  11.791  0.00  0.00    +0.142 A 
ATOM     11  C   UNL     1       0.919  15.668  10.104  0.00  0.00    +0.162 A 
ENDROOT
BRANCH  11  12
ATOM     12  C   UNL     1       2.124  15.022   9.654  0.00  0.00    +0.019 A 
ATOM     13  C   UNL     1       2.544  13.827  10.245  0.00  0.00    +0.011 A 
ATOM     14  C   UNL     1       2.879  15.583   8.620  0.00  0.00    +0.011 A 
ATOM     15  C   UNL     1       3.711  13.199   9.807  0.00  0.00    +0.001 A 
ATOM     16  C   UNL     1       4.045  14.955   8.183  0.00  0.00    +0.001 A 
ATOM     17  C   UNL     1       4.461  13.763   8.775  0.00  0.00    +0.000 A 
ENDBRANCH  11  12
BRANCH   2  18
ATOM     18  C   UNL     1      -1.453  18.461   7.733  0.00  0.00    +0.224 C 
BRANCH  18  21
ATOM     19  O   UNL     1      -2.572  16.676   6.589  0.00  0.00    -0.274 OA
ATOM     20  N   UNL     1      -0.340  17.022   6.057  0.00  0.00    -0.296 N 
ATOM     21  C   UNL     1      -1.524  17.306   6.748  0.00  0.00    +0.236 C 
BRANCH  20  22
ATOM     22  C   UNL     1       0.887  17.782   6.263  0.00  0.00    +0.105 C 
ATOM     23  C   UNL     1       1.569  18.102   4.949  0.00  0.00    +0.024 C 
ENDBRANCH  20  22
BRANCH  20  24
ATOM     24  C   UNL     1      -0.247  15.941   5.079  0.00  0.00    +0.142 C 
BRANCH  24  25
ATOM     25  C   UNL     1       0.375  14.707   5.664  0.00  0.00    -0.030 A 
ATOM     26  C   UNL     1      -0.248  14.060   6.726  0.00  0.00    +0.005 A 
ATOM     27  C   UNL     1       1.569  14.222   5.142  0.00  0.00    +0.005 A 
ATOM     28  C   UNL     1       0.329  12.913   7.271  0.00  0.00    +0.000 A 
ATOM     29  C   UNL     1       2.146  13.075   5.687  0.00  0.00    +0.000 A 
ATOM     30  C   UNL     1       1.527  12.421   6.752  0.00  0.00    +0.000 A 
ENDBRANCH  24  25
ENDBRANCH  20  24
ENDBRANCH  18  21
ENDBRANCH   2  18
TORSDOF 6
ENDMDL
MODEL 4
REMARK VINA RESULT:    -5.948      2.294      5.988
REMARK INTER + INTRA:          -9.347
REMARK INTER:                  -8.005
REMARK INTRA:                  -1.342
REMARK UNBOUND:                -1.313
REMARK  Name = 6433109
REMARK  8 active torsions:
REMARK  status: ('A' for Active; 'I' for Inactive)
REMARK    1  A    between atoms: N_3  and  C_8
REMARK    2  A    between atoms: N_4  and  C_15
REMARK    3  A    between atoms: N_5  and  C_13
REMARK    4  A    between atoms: N_5  and  C_14
REMARK    5  A    between atoms: C_8  and  C_12
REMARK    6  A    between atoms: C_13  and  C_17
REMARK    7  A    between atoms: C_14  and  C_19
REMARK    8  A    between atoms: C_18  and  C_20
REMARK                            x       y       z     vdW  Elec       q    Type
REMARK                         _______ _______ _______ _____ _____    ______ ____
ROOT
ATOM      1  O   UNL     1       7.882  13.208   8.786  0.00  0.00    -0.246 OA
ATOM      2  N   UNL     1       7.460  14.313   6.728  0.00  0.00    -0.268 N 
ATOM      3  N   UNL     1       8.142  12.155   6.674  0.00  0.00    -0.292 N 
ATOM      4  N   UNL     1       7.274  14.638   4.286  0.00  0.00    -0.208 NA
ATOM      5  N   UNL     1       7.859  12.651   3.003  0.00  0.00    -0.233 NA
ATOM      6  C   UNL     1       7.540  13.916   5.381  0.00  0.00    +0.165 A 
ATOM      7  C   UNL     1       7.956  12.598   5.363  0.00  0.00    +0.107 A 
ATOM      8  C   UNL     1       7.835  13.223   7.565  0.00  0.00    +0.332 A 
ATOM      9  C   UNL     1       8.573  10.836   7.062  0.00  0.00    +0.154 C 
ATOM     10  C   UNL     1       8.109  11.985   4.151  0.00  0.00    +0.142 A 
ATOM     11  C   UNL     1       7.455  13.943   3.139  0.00  0.00    +0.162 A 
ENDROOT
BRANCH  11  12
ATOM     12  C   UNL     1       7.189  14.654   1.915  0.00  0.00    +0.019 A 
ATOM     13  C   UNL     1       7.025  13.954   0.717  0.00  0.00    +0.011 A 
ATOM     14  C   UNL     1       7.089  16.048   1.920  0.00  0.00    +0.011 A 
ATOM     15  C   UNL     1       6.765  14.642  -0.468  0.00  0.00    +0.001 A 
ATOM     16  C   UNL     1       6.830  16.736   0.734  0.00  0.00    +0.001 A 
ATOM     17  C   UNL     1       6.667  16.034  -0.460  0.00  0.00    +0.000 A 
ENDBRANCH  11  12
BRANCH   2  18
ATOM     18  C   UNL     1       7.059  15.631   7.145  0.00  0.00    +0.224 C 
BRANCH  18  21
ATOM     19  O   UNL     1       5.333  15.113   8.725  0.00  0.00    -0.274 OA
ATOM     20  N   UNL     1       4.674  16.170   6.768  0.00  0.00    -0.296 N 
ATOM     21  C   UNL     1       5.620  15.607   7.632  0.00  0.00    +0.236 C 
BRANCH  20  22
ATOM     22  C   UNL     1       5.039  16.747   5.480  0.00  0.00    +0.105 C 
ATOM     23  C   UNL     1       4.380  18.094   5.268  0.00  0.00    +0.024 C 
ENDBRANCH  20  22
BRANCH  20  24
ATOM     24  C   UNL     1       3.251  16.220   7.093  0.00  0.00    +0.142 C 
BRANCH  24  25
ATOM     25  C   UNL     1       2.465  15.195   6.328  0.00  0.00    -0.030 A 
ATOM     26  C   UNL     1       2.931  13.887   6.253  0.00  0.00    +0.005 A 
ATOM     27  C   UNL     1       1.280  15.563   5.702  0.00  0.00    +0.005 A 
ATOM     28  C   UNL     1       2.201  12.934   5.543  0.00  0.00    +0.000 A 
ATOM     29  C   UNL     1       0.550  14.609   4.991  0.00  0.00    +0.000 A 
ATOM     30  C   UNL     1       1.011  13.295   4.911  0.00  0.00    +0.000 A 
ENDBRANCH  24  25
ENDBRANCH  20  24
ENDBRANCH  18  21
ENDBRANCH   2  18
TORSDOF 6
ENDMDL
MODEL 5
REMARK VINA RESULT:    -5.852      7.060     10.230
REMARK INTER + INTRA:          -9.218
REMARK INTER:                  -6.369
REMARK INTRA:                  -2.850
REMARK UNBOUND:                -1.313
REMARK  Name = 6433109
REMARK  8 active torsions:
REMARK  status: ('A' for Active; 'I' for Inactive)
REMARK    1  A    between atoms: N_3  and  C_8
REMARK    2  A    between atoms: N_4  and  C_15
REMARK    3  A    between atoms: N_5  and  C_13
REMARK    4  A    between atoms: N_5  and  C_14
REMARK    5  A    between atoms: C_8  and  C_12
REMARK    6  A    between atoms: C_13  and  C_17
REMARK    7  A    between atoms: C_14  and  C_19
REMARK    8  A    between atoms: C_18  and  C_20
REMARK                            x       y       z     vdW  Elec       q    Type
REMARK                         _______ _______ _______ _____ _____    ______ ____
ROOT
ATOM      1  O   UNL     1      -2.619  20.979   6.620  0.00  0.00    -0.246 OA
ATOM      2  N   UNL     1      -1.647  18.861   7.078  0.00  0.00    -0.268 N 
ATOM      3  N   UNL     1      -1.952  19.464   4.917  0.00  0.00    -0.292 N 
ATOM      4  N   UNL     1      -0.645  16.646   6.641  0.00  0.00    -0.208 NA
ATOM      5  N   UNL     1      -0.443  16.131   4.268  0.00  0.00    -0.233 NA
ATOM      6  C   UNL     1      -1.181  17.813   6.264  0.00  0.00    +0.165 A 
ATOM      7  C   UNL     1      -1.372  18.193   4.950  0.00  0.00    +0.107 A 
ATOM      8  C   UNL     1      -2.139  19.915   6.254  0.00  0.00    +0.332 A 
ATOM      9  C   UNL     1      -2.301  20.197   3.727  0.00  0.00    +0.154 C 
ATOM     10  C   UNL     1      -0.992  17.327   3.963  0.00  0.00    +0.142 A 
ATOM     11  C   UNL     1      -0.302  15.861   5.594  0.00  0.00    +0.162 A 
ENDROOT
BRANCH  11  12
ATOM     12  C   UNL     1       0.282  14.585   5.919  0.00  0.00    +0.019 A 
ATOM     13  C   UNL     1       1.207  13.994   5.055  0.00  0.00    +0.011 A 
ATOM     14  C   UNL     1      -0.071  13.932   7.104  0.00  0.00    +0.011 A 
ATOM     15  C   UNL     1       1.775  12.760   5.371  0.00  0.00    +0.001 A 
ATOM     16  C   UNL     1       0.496  12.697   7.419  0.00  0.00    +0.001 A 
ATOM     17  C   UNL     1       1.419  12.111   6.554  0.00  0.00    +0.000 A 
ENDBRANCH  11  12
BRANCH   2  18
ATOM     18  C   UNL     1      -1.613  18.826   8.516  0.00  0.00    +0.224 C 
BRANCH  18  21
ATOM     19  O   UNL     1       0.629  19.648   8.727  0.00  0.00    -0.274 OA
ATOM     20  N   UNL     1       0.157  17.624   9.758  0.00  0.00    -0.296 N 
ATOM     21  C   UNL     1      -0.175  18.754   9.001  0.00  0.00    +0.236 C 
BRANCH  20  22
ATOM     22  C   UNL     1      -0.811  16.579  10.068  0.00  0.00    +0.105 C 
ATOM     23  C   UNL     1      -0.805  16.237  11.543  0.00  0.00    +0.024 C 
ENDBRANCH  20  22
BRANCH  20  24
ATOM     24  C   UNL     1       1.499  17.409  10.293  0.00  0.00    +0.142 C 
BRANCH  24  25
ATOM     25  C   UNL     1       2.273  16.412   9.481  0.00  0.00    -0.030 A 
ATOM     26  C   UNL     1       2.561  15.162  10.019  0.00  0.00    +0.005 A 
ATOM     27  C   UNL     1       2.696  16.746   8.200  0.00  0.00    +0.005 A 
ATOM     28  C   UNL     1       3.280  14.235   9.266  0.00  0.00    +0.000 A 
ATOM     29  C   UNL     1       3.415  15.818   7.446  0.00  0.00    +0.000 A 
ATOM     30  C   UNL     1       3.708  14.563   7.979  0.00  0.00    +0.000 A 
ENDBRANCH  24  25
ENDBRANCH  20  24
ENDBRANCH  18  21
ENDBRANCH   2  18
TORSDOF 6
ENDMDL
MODEL 6
REMARK VINA RESULT:    -5.838      6.299      9.638
REMARK INTER + INTRA:          -9.199
REMARK INTER:                  -6.362
REMARK INTRA:                  -2.837
REMARK UNBOUND:                -1.313
REMARK  Name = 6433109
REMARK  8 active torsions:
REMARK  status: ('A' for Active; 'I' for Inactive)
REMARK    1  A    between atoms: N_3  and  C_8
REMARK    2  A    between atoms: N_4  and  C_15
REMARK    3  A    between atoms: N_5  and  C_13
REMARK    4  A    between atoms: N_5  and  C_14
REMARK    5  A    between atoms: C_8  and  C_12
REMARK    6  A    between atoms: C_13  and  C_17
REMARK    7  A    between atoms: C_14  and  C_19
REMARK    8  A    between atoms: C_18  and  C_20
REMARK                            x       y       z     vdW  Elec       q    Type
REMARK                         _______ _______ _______ _____ _____    ______ ____
ROOT
ATOM      1  O   UNL     1      -0.489  16.991  13.784  0.00  0.00    -0.246 OA
ATOM      2  N   UNL     1       0.332  15.797  11.904  0.00  0.00    -0.268 N 
ATOM      3  N   UNL     1      -1.494  17.108  11.636  0.00  0.00    -0.292 N 
ATOM      4  N   UNL     1       0.471  14.985   9.575  0.00  0.00    -0.208 NA
ATOM      5  N   UNL     1      -1.277  15.882   8.135  0.00  0.00    -0.233 NA
ATOM      6  C   UNL     1      -0.078  15.703  10.561  0.00  0.00    +0.165 A 
ATOM      7  C   UNL     1      -1.192  16.507  10.412  0.00  0.00    +0.107 A 
ATOM      8  C   UNL     1      -0.544  16.676  12.604  0.00  0.00    +0.332 A 
ATOM      9  C   UNL     1      -2.587  18.016  11.879  0.00  0.00    +0.154 C 
ATOM     10  C   UNL     1      -1.777  16.580   9.179  0.00  0.00    +0.142 A 
ATOM     11  C   UNL     1      -0.179  15.124   8.396  0.00  0.00    +0.162 A 
ENDROOT
BRANCH  11  12
ATOM     12  C   UNL     1       0.354  14.379   7.284  0.00  0.00    +0.019 A 
ATOM     13  C   UNL     1       0.997  13.157   7.500  0.00  0.00    +0.011 A 
ATOM     14  C   UNL     1       0.227  14.872   5.983  0.00  0.00    +0.011 A 
ATOM     15  C   UNL     1       1.510  12.434   6.423  0.00  0.00    +0.001 A 
ATOM     16  C   UNL     1       0.741  14.149   4.906  0.00  0.00    +0.001 A 
ATOM     17  C   UNL     1       1.382  12.931   5.125  0.00  0.00    +0.000 A 
ENDBRANCH  11  12
BRANCH   2  18
ATOM     18  C   UNL     1       1.466  15.092  12.439  0.00  0.00    +0.224 C 
BRANCH  18  21
ATOM     19  O   UNL     1       3.105  16.731  11.828  0.00  0.00    -0.274 OA
ATOM     20  N   UNL     1       3.442  14.574  11.044  0.00  0.00    -0.296 N 
ATOM     21  C   UNL     1       2.739  15.556  11.751  0.00  0.00    +0.236 C 
BRANCH  20  22
ATOM     22  C   UNL     1       2.989  13.191  10.968  0.00  0.00    +0.105 C 
ATOM     23  C   UNL     1       4.114  12.221  11.265  0.00  0.00    +0.024 C 
ENDBRANCH  20  22
BRANCH  20  24
ATOM     24  C   UNL     1       4.682  14.864  10.328  0.00  0.00    +0.142 C 
BRANCH  24  25
ATOM     25  C   UNL     1       4.457  15.006   8.851  0.00  0.00    -0.030 A 
ATOM     26  C   UNL     1       3.752  16.102   8.365  0.00  0.00    +0.005 A 
ATOM     27  C   UNL     1       4.952  14.040   7.982  0.00  0.00    +0.005 A 
ATOM     28  C   UNL     1       3.542  16.235   6.993  0.00  0.00    +0.000 A 
ATOM     29  C   UNL     1       4.742  14.174   6.609  0.00  0.00    +0.000 A 
ATOM     30  C   UNL     1       4.037  15.270   6.114  0.00  0.00    +0.000 A 
ENDBRANCH  24  25
ENDBRANCH  20  24
ENDBRANCH  18  21
ENDBRANCH   2  18
TORSDOF 6
ENDMDL
MODEL 7
REMARK VINA RESULT:    -5.836      5.637      9.447
REMARK INTER + INTRA:          -9.196
REMARK INTER:                  -6.470
REMARK INTRA:                  -2.727
REMARK UNBOUND:                -1.313
REMARK  Name = 6433109
REMARK  8 active torsions:
REMARK  status: ('A' for Active; 'I' for Inactive)
REMARK    1  A    between atoms: N_3  and  C_8
REMARK    2  A    between atoms: N_4  and  C_15
REMARK    3  A    between atoms: N_5  and  C_13
REMARK    4  A    between atoms: N_5  and  C_14
REMARK    5  A    between atoms: C_8  and  C_12
REMARK    6  A    between atoms: C_13  and  C_17
REMARK    7  A    between atoms: C_14  and  C_19
REMARK    8  A    between atoms: C_18  and  C_20
REMARK                            x       y       z     vdW  Elec       q    Type
REMARK                         _______ _______ _______ _____ _____    ______ ____
ROOT
ATOM      1  O   UNL     1      -1.073  21.252   5.916  0.00  0.00    -0.246 OA
ATOM      2  N   UNL     1       0.128  19.308   6.560  0.00  0.00    -0.268 N 
ATOM      3  N   UNL     1       0.997  20.626   4.937  0.00  0.00    -0.292 N 
ATOM      4  N   UNL     1       1.931  17.619   6.583  0.00  0.00    -0.208 NA
ATOM      5  N   UNL     1       3.705  18.080   4.978  0.00  0.00    -0.233 NA
ATOM      6  C   UNL     1       1.343  18.737   6.141  0.00  0.00    +0.165 A 
ATOM      7  C   UNL     1       1.863  19.550   5.152  0.00  0.00    +0.107 A 
ATOM      8  C   UNL     1      -0.114  20.499   5.817  0.00  0.00    +0.332 A 
ATOM      9  C   UNL     1       1.197  21.687   3.983  0.00  0.00    +0.154 C 
ATOM     10  C   UNL     1       3.054  19.196   4.582  0.00  0.00    +0.142 A 
ATOM     11  C   UNL     1       3.102  17.356   5.959  0.00  0.00    +0.162 A 
ENDROOT
BRANCH  11  12
ATOM     12  C   UNL     1       3.795  16.165   6.381  0.00  0.00    +0.019 A 
ATOM     13  C   UNL     1       4.819  15.632   5.593  0.00  0.00    +0.011 A 
ATOM     14  C   UNL     1       3.450  15.539   7.582  0.00  0.00    +0.011 A 
ATOM     15  C   UNL     1       5.492  14.480   6.003  0.00  0.00    +0.001 A 
ATOM     16  C   UNL     1       4.122  14.388   7.990  0.00  0.00    +0.001 A 
ATOM     17  C   UNL     1       5.144  13.858   7.202  0.00  0.00    +0.000 A 
ENDBRANCH  11  12
BRANCH   2  18
ATOM     18  C   UNL     1      -0.706  18.737   7.584  0.00  0.00    +0.224 C 
BRANCH  18  21
ATOM     19  O   UNL     1      -1.956  17.286   6.142  0.00  0.00    -0.274 OA
ATOM     20  N   UNL     1      -0.835  16.288   7.911  0.00  0.00    -0.296 N 
ATOM     21  C   UNL     1      -1.229  17.383   7.133  0.00  0.00    +0.236 C 
BRANCH  20  22
ATOM     22  C   UNL     1       0.024  16.429   9.080  0.00  0.00    +0.105 C 
ATOM     23  C   UNL     1      -0.758  16.266  10.367  0.00  0.00    +0.024 C 
ENDBRANCH  20  22
BRANCH  20  24
ATOM     24  C   UNL     1      -1.257  14.923   7.609  0.00  0.00    +0.142 C 
BRANCH  24  25
ATOM     25  C   UNL     1      -0.179  14.143   6.913  0.00  0.00    -0.030 A 
ATOM     26  C   UNL     1       0.294  14.575   5.680  0.00  0.00    +0.005 A 
ATOM     27  C   UNL     1       0.334  12.997   7.508  0.00  0.00    +0.005 A 
ATOM     28  C   UNL     1       1.296  13.852   5.032  0.00  0.00    +0.000 A 
ATOM     29  C   UNL     1       1.337  12.273   6.861  0.00  0.00    +0.000 A 
ATOM     30  C   UNL     1       1.817  12.700   5.623  0.00  0.00    +0.000 A 
ENDBRANCH  24  25
ENDBRANCH  20  24
ENDBRANCH  18  21
ENDBRANCH   2  18
TORSDOF 6
ENDMDL
MODEL 8
REMARK VINA RESULT:    -5.779     11.526     15.183
REMARK INTER + INTRA:          -9.119
REMARK INTER:                  -6.304
REMARK INTRA:                  -2.815
REMARK UNBOUND:                -1.313
REMARK  Name = 6433109
REMARK  8 active torsions:
REMARK  status: ('A' for Active; 'I' for Inactive)
REMARK    1  A    between atoms: N_3  and  C_8
REMARK    2  A    between atoms: N_4  and  C_15
REMARK    3  A    between atoms: N_5  and  C_13
REMARK    4  A    between atoms: N_5  and  C_14
REMARK    5  A    between atoms: C_8  and  C_12
REMARK    6  A    between atoms: C_13  and  C_17
REMARK    7  A    between atoms: C_14  and  C_19
REMARK    8  A    between atoms: C_18  and  C_20
REMARK                            x       y       z     vdW  Elec       q    Type
REMARK                         _______ _______ _______ _____ _____    ______ ____
ROOT
ATOM      1  O   UNL     1       1.260   9.497  17.295  0.00  0.00    -0.246 OA
ATOM      2  N   UNL     1       3.085   8.409  16.234  0.00  0.00    -0.268 N 
ATOM      3  N   UNL     1       2.128  10.178  15.193  0.00  0.00    -0.292 N 
ATOM      4  N   UNL     1       4.795   7.929  14.517  0.00  0.00    -0.208 NA
ATOM      5  N   UNL     1       4.704   9.449  12.615  0.00  0.00    -0.233 NA
ATOM      6  C   UNL     1       3.764   8.618  15.020  0.00  0.00    +0.165 A 
ATOM      7  C   UNL     1       3.171   9.699  14.395  0.00  0.00    +0.107 A 
ATOM      8  C   UNL     1       2.049   9.378  16.368  0.00  0.00    +0.332 A 
ATOM      9  C   UNL     1       1.275  11.296  14.878  0.00  0.00    +0.154 C 
ATOM     10  C   UNL     1       3.664  10.097  13.184  0.00  0.00    +0.142 A 
ATOM     11  C   UNL     1       5.209   8.400  13.318  0.00  0.00    +0.162 A 
ENDROOT
BRANCH  11  12
ATOM     12  C   UNL     1       6.317   7.708  12.711  0.00  0.00    +0.019 A 
ATOM     13  C   UNL     1       7.143   6.888  13.485  0.00  0.00    +0.011 A 
ATOM     14  C   UNL     1       6.570   7.850  11.344  0.00  0.00    +0.011 A 
ATOM     15  C   UNL     1       8.214   6.216  12.897  0.00  0.00    +0.001 A 
ATOM     16  C   UNL     1       7.643   7.178  10.757  0.00  0.00    +0.001 A 
ATOM     17  C   UNL     1       8.465   6.361  11.532  0.00  0.00    +0.000 A 
ENDBRANCH  11  12
BRANCH   2  18
ATOM     18  C   UNL     1       3.421   7.363  17.162  0.00  0.00    +0.224 C 
BRANCH  18  21
ATOM     19  O   UNL     1       2.029   5.673  16.185  0.00  0.00    -0.274 OA
ATOM     20  N   UNL     1       4.289   5.183  16.376  0.00  0.00    -0.296 N 
ATOM     21  C   UNL     1       3.166   6.005  16.530  0.00  0.00    +0.236 C 
BRANCH  20  22
ATOM     22  C   UNL     1       5.623   5.598  16.793  0.00  0.00    +0.105 C 
ATOM     23  C   UNL     1       6.297   4.535  17.635  0.00  0.00    +0.024 C 
ENDBRANCH  20  22
BRANCH  20  24
ATOM     24  C   UNL     1       4.206   3.849  15.788  0.00  0.00    +0.142 C 
BRANCH  24  25
ATOM     25  C   UNL     1       4.709   3.827  14.374  0.00  0.00    -0.030 A 
ATOM     26  C   UNL     1       4.045   4.560  13.397  0.00  0.00    +0.005 A 
ATOM     27  C   UNL     1       5.832   3.073  14.054  0.00  0.00    +0.005 A 
ATOM     28  C   UNL     1       4.511   4.541  12.083  0.00  0.00    +0.000 A 
ATOM     29  C   UNL     1       6.298   3.054  12.739  0.00  0.00    +0.000 A 
ATOM     30  C   UNL     1       5.638   3.786  11.753  0.00  0.00    +0.000 A 
ENDBRANCH  24  25
ENDBRANCH  20  24
ENDBRANCH  18  21
ENDBRANCH   2  18
TORSDOF 6
ENDMDL
MODEL 9
REMARK VINA RESULT:    -5.736      2.506      6.563
REMARK INTER + INTRA:          -9.061
REMARK INTER:                  -8.007
REMARK INTRA:                  -1.054
REMARK UNBOUND:                -1.313
REMARK  Name = 6433109
REMARK  8 active torsions:
REMARK  status: ('A' for Active; 'I' for Inactive)
REMARK    1  A    between atoms: N_3  and  C_8
REMARK    2  A    between atoms: N_4  and  C_15
REMARK    3  A    between atoms: N_5  and  C_13
REMARK    4  A    between atoms: N_5  and  C_14
REMARK    5  A    between atoms: C_8  and  C_12
REMARK    6  A    between atoms: C_13  and  C_17
REMARK    7  A    between atoms: C_14  and  C_19
REMARK    8  A    between atoms: C_18  and  C_20
REMARK                            x       y       z     vdW  Elec       q    Type
REMARK                         _______ _______ _______ _____ _____    ______ ____
ROOT
ATOM      1  O   UNL     1       8.609  13.289   7.801  0.00  0.00    -0.246 OA
ATOM      2  N   UNL     1       7.974  13.993   5.624  0.00  0.00    -0.268 N 
ATOM      3  N   UNL     1       9.731  12.581   5.832  0.00  0.00    -0.292 N 
ATOM      4  N   UNL     1       8.023  14.184   3.161  0.00  0.00    -0.208 NA
ATOM      5  N   UNL     1       9.798  12.873   2.128  0.00  0.00    -0.233 NA
ATOM      6  C   UNL     1       8.468  13.722   4.335  0.00  0.00    +0.165 A 
ATOM      7  C   UNL     1       9.539  12.859   4.477  0.00  0.00    +0.107 A 
ATOM      8  C   UNL     1       8.752  13.288   6.587  0.00  0.00    +0.332 A 
ATOM      9  C   UNL     1      10.751  11.721   6.377  0.00  0.00    +0.154 C 
ATOM     10  C   UNL     1      10.191  12.447   3.349  0.00  0.00    +0.142 A 
ATOM     11  C   UNL     1       8.733  13.719   2.108  0.00  0.00    +0.162 A 
ENDROOT
BRANCH  11  12
ATOM     12  C   UNL     1       8.314  14.175   0.807  0.00  0.00    +0.019 A 
ATOM     13  C   UNL     1       9.243  14.732  -0.076  0.00  0.00    +0.011 A 
ATOM     14  C   UNL     1       6.976  14.058   0.419  0.00  0.00    +0.011 A 
ATOM     15  C   UNL     1       8.837  15.171  -1.337  0.00  0.00    +0.001 A 
ATOM     16  C   UNL     1       6.571  14.497  -0.841  0.00  0.00    +0.001 A 
ATOM     17  C   UNL     1       7.501  15.053  -1.720  0.00  0.00    +0.000 A 
ENDBRANCH  11  12
BRANCH   2  18
ATOM     18  C   UNL     1       6.854  14.860   5.878  0.00  0.00    +0.224 C 
BRANCH  18  21
ATOM     19  O   UNL     1       5.304  13.144   5.245  0.00  0.00    -0.274 OA
ATOM     20  N   UNL     1       4.791  14.365   7.150  0.00  0.00    -0.296 N 
ATOM     21  C   UNL     1       5.588  14.037   6.047  0.00  0.00    +0.236 C 
BRANCH  20  22
ATOM     22  C   UNL     1       5.147  15.426   8.084  0.00  0.00    +0.105 C 
ATOM     23  C   UNL     1       4.844  15.031   9.515  0.00  0.00    +0.024 C 
ENDBRANCH  20  22
BRANCH  20  24
ATOM     24  C   UNL     1       3.542  13.667   7.446  0.00  0.00    +0.142 C 
BRANCH  24  25
ATOM     25  C   UNL     1       2.431  14.094   6.532  0.00  0.00    -0.030 A 
ATOM     26  C   UNL     1       1.789  13.148   5.741  0.00  0.00    +0.005 A 
ATOM     27  C   UNL     1       2.054  15.431   6.483  0.00  0.00    +0.005 A 
ATOM     28  C   UNL     1       0.756  13.543   4.892  0.00  0.00    +0.000 A 
ATOM     29  C   UNL     1       1.021  15.827   5.633  0.00  0.00    +0.000 A 
ATOM     30  C   UNL     1       0.372  14.884   4.837  0.00  0.00    +0.000 A 
ENDBRANCH  24  25
ENDBRANCH  20  24
ENDBRANCH  18  21
ENDBRANCH   2  18
TORSDOF 6
ENDMDL
MODEL 10
REMARK VINA RESULT:    -5.713      7.341     10.735
REMARK INTER + INTRA:          -9.030
REMARK INTER:                  -6.205
REMARK INTRA:                  -2.824
REMARK UNBOUND:                -1.313
REMARK  Name = 6433109
REMARK  8 active torsions:
REMARK  status: ('A' for Active; 'I' for Inactive)
REMARK    1  A    between atoms: N_3  and  C_8
REMARK    2  A    between atoms: N_4  and  C_15
REMARK    3  A    between atoms: N_5  and  C_13
REMARK    4  A    between atoms: N_5  and  C_14
REMARK    5  A    between atoms: C_8  and  C_12
REMARK    6  A    between atoms: C_13  and  C_17
REMARK    7  A    between atoms: C_14  and  C_19
REMARK    8  A    between atoms: C_18  and  C_20
REMARK                            x       y       z     vdW  Elec       q    Type
REMARK                         _______ _______ _______ _____ _____    ______ ____
ROOT
ATOM      1  O   UNL     1      -3.070  19.940  10.174  0.00  0.00    -0.246 OA
ATOM      2  N   UNL     1      -1.842  17.986   9.617  0.00  0.00    -0.268 N 
ATOM      3  N   UNL     1      -2.777  19.188   7.941  0.00  0.00    -0.292 N 
ATOM      4  N   UNL     1      -0.823  16.233   8.206  0.00  0.00    -0.208 NA
ATOM      5  N   UNL     1      -1.241  16.547   5.826  0.00  0.00    -0.233 NA
ATOM      6  C   UNL     1      -1.535  17.349   8.401  0.00  0.00    +0.165 A 
ATOM      7  C   UNL     1      -2.110  18.093   7.388  0.00  0.00    +0.107 A 
ATOM      8  C   UNL     1      -2.625  19.148   9.356  0.00  0.00    +0.332 A 
ATOM      9  C   UNL     1      -3.499  20.193   7.203  0.00  0.00    +0.154 C 
ATOM     10  C   UNL     1      -1.947  17.666   6.100  0.00  0.00    +0.142 A 
ATOM     11  C   UNL     1      -0.719  15.895   6.900  0.00  0.00    +0.162 A 
ENDROOT
BRANCH  11  12
ATOM     12  C   UNL     1       0.033  14.702   6.609  0.00  0.00    +0.019 A 
ATOM     13  C   UNL     1       0.073  13.653   7.533  0.00  0.00    +0.011 A 
ATOM     14  C   UNL     1       0.724  14.583   5.400  0.00  0.00    +0.011 A 
ATOM     15  C   UNL     1       0.799  12.496   7.250  0.00  0.00    +0.001 A 
ATOM     16  C   UNL     1       1.451  13.426   5.119  0.00  0.00    +0.001 A 
ATOM     17  C   UNL     1       1.488  12.382   6.043  0.00  0.00    +0.000 A 
ENDBRANCH  11  12
BRANCH   2  18
ATOM     18  C   UNL     1      -1.411  17.498  10.900  0.00  0.00    +0.224 C 
BRANCH  18  21
ATOM     19  O   UNL     1       0.723  18.585  10.813  0.00  0.00    -0.274 OA
ATOM     20  N   UNL     1       0.727  16.311  11.269  0.00  0.00    -0.296 N 
ATOM     21  C   UNL     1       0.105  17.532  10.987  0.00  0.00    +0.236 C 
BRANCH  20  22
ATOM     22  C   UNL     1      -0.026  15.079  11.470  0.00  0.00    +0.105 C 
ATOM     23  C   UNL     1       0.234  14.486  12.839  0.00  0.00    +0.024 C 
ENDBRANCH  20  22
BRANCH  20  24
ATOM     24  C   UNL     1       2.178  16.180  11.382  0.00  0.00    +0.142 C 
BRANCH  24  25
ATOM     25  C   UNL     1       2.781  15.549  10.161  0.00  0.00    -0.030 A 
ATOM     26  C   UNL     1       3.302  14.262  10.238  0.00  0.00    +0.005 A 
ATOM     27  C   UNL     1       2.813  16.256   8.965  0.00  0.00    +0.005 A 
ATOM     28  C   UNL     1       3.863  13.675   9.104  0.00  0.00    +0.000 A 
ATOM     29  C   UNL     1       3.374  15.668   7.830  0.00  0.00    +0.000 A 
ATOM     30  C   UNL     1       3.899  14.378   7.900  0.00  0.00    +0.000 A 
ENDBRANCH  24  25
ENDBRANCH  20  24
ENDBRANCH  18  21
ENDBRANCH   2  18
TORSDOF 6
ENDMDL
