MODEL 1
REMARK VINA RESULT:    -6.330      0.000      0.000
REMARK INTER + INTRA:         -11.518
REMARK INTER:                  -9.660
REMARK INTRA:                  -1.858
REMARK UNBOUND:                -1.858
REMARK SMILES CCN(Cc1ccccc1)C(=O)Cn1c(=O)n(CC(F)(F)F)c2cnc(-c3ccccc3)nc21
REMARK SMILES IDX 13 1 11 2 12 3 3 4 2 5 1 6 4 7 5 8 6 9 10 10 7 11 9 12 8 13
REMARK SMILES IDX 14 14 34 15 15 16 33 17 23 18 17 19 16 20 26 21 24 22 25 23
REMARK SMILES IDX 18 24 19 25 20 26 21 27 22 28 27 29 28 30 32 31 29 32 31 33
REMARK SMILES IDX 30 34
REMARK H PARENT
ROOT
ATOM      1  C   UNL     1       6.470  14.362   8.809  1.00  0.00     0.229 C 
ENDROOT
BRANCH   1   2
ATOM      2  C   UNL     1       4.944  14.365   8.678  1.00  0.00     0.243 C 
ATOM      3  O   UNL     1       4.294  13.446   9.189  1.00  0.00    -0.273 OA
BRANCH   2   4
ATOM      4  N   UNL     1       4.318  15.405   7.998  1.00  0.00    -0.337 N 
BRANCH   4   5
ATOM      5  C   UNL     1       3.552  16.479   8.627  1.00  0.00     0.116 C 
ATOM      6  C   UNL     1       3.866  17.834   8.012  1.00  0.00     0.027 C 
ENDBRANCH   4   5
BRANCH   4   7
ATOM      7  C   UNL     1       4.338  15.380   6.535  1.00  0.00     0.155 C 
BRANCH   7   8
ATOM      8  C   UNL     1       3.086  14.742   5.975  1.00  0.00    -0.029 A 
ATOM      9  C   UNL     1       3.039  13.357   5.747  1.00  0.00     0.005 A 
ATOM     10  C   UNL     1       1.958  15.516   5.670  1.00  0.00     0.005 A 
ATOM     11  C   UNL     1       1.890  12.762   5.224  1.00  0.00     0.000 A 
ATOM     12  C   UNL     1       0.810  14.919   5.147  1.00  0.00     0.000 A 
ATOM     13  C   UNL     1       0.776  13.544   4.924  1.00  0.00     0.000 A 
ENDBRANCH   7   8
ENDBRANCH   4   7
ENDBRANCH   2   4
ENDBRANCH   1   2
BRANCH   1  14
ATOM     14  N   UNL     1       7.045  13.110   8.383  1.00  0.00    -0.267 N 
ATOM     15  C   UNL     1       7.480  12.851   7.078  1.00  0.00     0.165 A 
ATOM     16  C   UNL     1       7.561  12.121   9.239  1.00  0.00     0.331 A 
ATOM     17  N   UNL     1       7.280  13.608   6.002  1.00  0.00    -0.208 NA
ATOM     18  C   UNL     1       8.176  11.661   7.103  1.00  0.00     0.108 A 
ATOM     19  N   UNL     1       8.201  11.175   8.412  1.00  0.00    -0.280 N 
ATOM     20  O   UNL     1       7.494  12.073  10.454  1.00  0.00    -0.248 OA
ATOM     21  C   UNL     1       7.821  13.108   4.868  1.00  0.00     0.161 A 
ATOM     22  C   UNL     1       8.698  11.229   5.925  1.00  0.00     0.144 A 
ATOM     23  N   UNL     1       8.522  11.941   4.791  1.00  0.00    -0.234 NA
BRANCH  19  24
ATOM     24  C   UNL     1       8.972  10.053   8.902  1.00  0.00     0.243 C 
BRANCH  24  25
ATOM     25  C   UNL     1       8.415   8.688   8.511  1.00  0.00     0.406 C 
ATOM     26  F   UNL     1       7.065   8.730   8.442  1.00  0.00    -0.169 F 
ATOM     27  F   UNL     1       8.865   8.323   7.288  1.00  0.00    -0.169 F 
ATOM     28  F   UNL     1       8.755   7.719   9.383  1.00  0.00    -0.169 F 
ENDBRANCH  24  25
ENDBRANCH  19  24
BRANCH  21  29
ATOM     29  C   UNL     1       7.629  13.878   3.621  1.00  0.00     0.019 A 
ATOM     30  C   UNL     1       7.708  13.262   2.356  1.00  0.00     0.012 A 
ATOM     31  C   UNL     1       7.354  15.260   3.642  1.00  0.00     0.012 A 
ATOM     32  C   UNL     1       7.524  13.988   1.175  1.00  0.00     0.001 A 
ATOM     33  C   UNL     1       7.170  15.989   2.463  1.00  0.00     0.001 A 
ATOM     34  C   UNL     1       7.255  15.352   1.229  1.00  0.00     0.000 A 
ENDBRANCH  21  29
ENDBRANCH   1  14
TORSDOF 9
ENDMDL
MODEL 2
REMARK VINA RESULT:    -6.313      0.152      1.179
REMARK INTER + INTRA:         -11.492
REMARK INTER:                  -9.652
REMARK INTRA:                  -1.840
REMARK UNBOUND:                -1.858
REMARK SMILES CCN(Cc1ccccc1)C(=O)Cn1c(=O)n(CC(F)(F)F)c2cnc(-c3ccccc3)nc21
REMARK SMILES IDX 13 1 11 2 12 3 3 4 2 5 1 6 4 7 5 8 6 9 10 10 7 11 9 12 8 13
REMARK SMILES IDX 14 14 34 15 15 16 33 17 23 18 17 19 16 20 26 21 24 22 25 23
REMARK SMILES IDX 18 24 19 25 20 26 21 27 22 28 27 29 28 30 32 31 29 32 31 33
REMARK SMILES IDX 30 34
REMARK H PARENT
ROOT
ATOM      1  C   UNL     1       6.479  14.370   8.792  1.00  0.00     0.229 C 
ENDROOT
BRANCH   1   2
ATOM      2  C   UNL     1       4.970  14.416   8.535  1.00  0.00     0.243 C 
ATOM      3  O   UNL     1       4.255  13.512   8.983  1.00  0.00    -0.273 OA
BRANCH   2   4
ATOM      4  N   UNL     1       4.431  15.477   7.814  1.00  0.00    -0.337 N 
BRANCH   4   5
ATOM      5  C   UNL     1       3.796  16.655   8.401  1.00  0.00     0.116 C 
ATOM      6  C   UNL     1       4.082  17.912   7.595  1.00  0.00     0.027 C 
ENDBRANCH   4   5
BRANCH   4   7
ATOM      7  C   UNL     1       4.403  15.372   6.354  1.00  0.00     0.155 C 
BRANCH   7   8
ATOM      8  C   UNL     1       3.138  14.699   5.872  1.00  0.00    -0.029 A 
ATOM      9  C   UNL     1       1.981  15.457   5.630  1.00  0.00     0.005 A 
ATOM     10  C   UNL     1       3.094  13.313   5.665  1.00  0.00     0.005 A 
ATOM     11  C   UNL     1       0.807  14.842   5.192  1.00  0.00     0.000 A 
ATOM     12  C   UNL     1       1.919  12.700   5.227  1.00  0.00     0.000 A 
ATOM     13  C   UNL     1       0.777  13.464   4.991  1.00  0.00     0.000 A 
ENDBRANCH   7   8
ENDBRANCH   4   7
ENDBRANCH   2   4
ENDBRANCH   1   2
BRANCH   1  14
ATOM     14  N   UNL     1       7.057  13.113   8.385  1.00  0.00    -0.267 N 
ATOM     15  C   UNL     1       7.509  12.841   7.089  1.00  0.00     0.165 A 
ATOM     16  C   UNL     1       7.561  12.132   9.256  1.00  0.00     0.331 A 
ATOM     17  N   UNL     1       7.323  13.589   6.002  1.00  0.00    -0.208 NA
ATOM     18  C   UNL     1       8.203  11.651   7.133  1.00  0.00     0.108 A 
ATOM     19  N   UNL     1       8.210  11.177   8.446  1.00  0.00    -0.280 N 
ATOM     20  O   UNL     1       7.479  12.095  10.471  1.00  0.00    -0.248 OA
ATOM     21  C   UNL     1       7.878  13.078   4.881  1.00  0.00     0.161 A 
ATOM     22  C   UNL     1       8.739  11.208   5.966  1.00  0.00     0.144 A 
ATOM     23  N   UNL     1       8.578  11.910   4.823  1.00  0.00    -0.234 NA
BRANCH  19  24
ATOM     24  C   UNL     1       8.973  10.059   8.956  1.00  0.00     0.243 C 
BRANCH  24  25
ATOM     25  C   UNL     1       8.386   8.691   8.623  1.00  0.00     0.406 C 
ATOM     26  F   UNL     1       7.034   8.730   8.680  1.00  0.00    -0.169 F 
ATOM     27  F   UNL     1       8.720   8.324   7.364  1.00  0.00    -0.169 F 
ATOM     28  F   UNL     1       8.808   7.726   9.462  1.00  0.00    -0.169 F 
ENDBRANCH  24  25
ENDBRANCH  19  24
BRANCH  21  29
ATOM     29  C   UNL     1       7.702  13.837   3.624  1.00  0.00     0.019 A 
ATOM     30  C   UNL     1       7.430  15.219   3.630  1.00  0.00     0.012 A 
ATOM     31  C   UNL     1       7.803  13.211   2.365  1.00  0.00     0.012 A 
ATOM     32  C   UNL     1       7.265  15.938   2.442  1.00  0.00     0.001 A 
ATOM     33  C   UNL     1       7.639  13.928   1.175  1.00  0.00     0.001 A 
ATOM     34  C   UNL     1       7.370  15.292   1.215  1.00  0.00     0.000 A 
ENDBRANCH  21  29
ENDBRANCH   1  14
TORSDOF 9
ENDMDL
MODEL 3
REMARK VINA RESULT:    -6.175      1.109      1.621
REMARK INTER + INTRA:         -11.281
REMARK INTER:                  -9.608
REMARK INTRA:                  -1.673
REMARK UNBOUND:                -1.858
REMARK SMILES CCN(Cc1ccccc1)C(=O)Cn1c(=O)n(CC(F)(F)F)c2cnc(-c3ccccc3)nc21
REMARK SMILES IDX 13 1 11 2 12 3 3 4 2 5 1 6 4 7 5 8 6 9 10 10 7 11 9 12 8 13
REMARK SMILES IDX 14 14 34 15 15 16 33 17 23 18 17 19 16 20 26 21 24 22 25 23
REMARK SMILES IDX 18 24 19 25 20 26 21 27 22 28 27 29 28 30 32 31 29 32 31 33
REMARK SMILES IDX 30 34
REMARK H PARENT
ROOT
ATOM      1  C   UNL     1       6.592  14.167   8.823  1.00  0.00     0.229 C 
ENDROOT
BRANCH   1   2
ATOM      2  C   UNL     1       5.112  14.334   8.465  1.00  0.00     0.243 C 
ATOM      3  O   UNL     1       4.286  13.544   8.934  1.00  0.00    -0.273 OA
BRANCH   2   4
ATOM      4  N   UNL     1       4.725  15.377   7.630  1.00  0.00    -0.337 N 
BRANCH   4   5
ATOM      5  C   UNL     1       4.277  16.693   8.081  1.00  0.00     0.116 C 
ATOM      6  C   UNL     1       3.067  16.595   8.998  1.00  0.00     0.027 C 
ENDBRANCH   4   5
BRANCH   4   7
ATOM      7  C   UNL     1       4.661  15.118   6.190  1.00  0.00     0.155 C 
BRANCH   7   8
ATOM      8  C   UNL     1       3.312  14.567   5.786  1.00  0.00    -0.029 A 
ATOM      9  C   UNL     1       2.227  15.434   5.582  1.00  0.00     0.005 A 
ATOM     10  C   UNL     1       3.119  13.189   5.614  1.00  0.00     0.005 A 
ATOM     11  C   UNL     1       0.977  14.933   5.216  1.00  0.00     0.000 A 
ATOM     12  C   UNL     1       1.868  12.690   5.249  1.00  0.00     0.000 A 
ATOM     13  C   UNL     1       0.798  13.561   5.050  1.00  0.00     0.000 A 
ENDBRANCH   7   8
ENDBRANCH   4   7
ENDBRANCH   2   4
ENDBRANCH   1   2
BRANCH   1  14
ATOM     14  N   UNL     1       7.020  12.794   8.715  1.00  0.00    -0.267 N 
ATOM     15  C   UNL     1       7.602  12.242   7.568  1.00  0.00     0.165 A 
ATOM     16  C   UNL     1       7.237  11.924   9.798  1.00  0.00     0.331 A 
ATOM     17  N   UNL     1       7.690  12.804   6.365  1.00  0.00    -0.208 NA
ATOM     18  C   UNL     1       8.090  10.998   7.909  1.00  0.00     0.108 A 
ATOM     19  N   UNL     1       7.838  10.767   9.263  1.00  0.00    -0.280 N 
ATOM     20  O   UNL     1       6.980  12.113  10.974  1.00  0.00    -0.248 OA
ATOM     21  C   UNL     1       8.312  12.036   5.442  1.00  0.00     0.161 A 
ATOM     22  C   UNL     1       8.711  10.291   6.929  1.00  0.00     0.144 A 
ATOM     23  N   UNL     1       8.823  10.795   5.681  1.00  0.00    -0.234 NA
BRANCH  19  24
ATOM     24  C   UNL     1       8.340   9.666  10.058  1.00  0.00     0.243 C 
BRANCH  24  25
ATOM     25  C   UNL     1       7.440   8.435  10.067  1.00  0.00     0.406 C 
ATOM     26  F   UNL     1       6.464   8.569  10.994  1.00  0.00    -0.169 F 
ATOM     27  F   UNL     1       6.832   8.281   8.868  1.00  0.00    -0.169 F 
ATOM     28  F   UNL     1       8.114   7.300  10.338  1.00  0.00    -0.169 F 
ENDBRANCH  24  25
ENDBRANCH  19  24
BRANCH  21  29
ATOM     29  C   UNL     1       8.435  12.577   4.072  1.00  0.00     0.019 A 
ATOM     30  C   UNL     1       9.660  12.551   3.377  1.00  0.00     0.012 A 
ATOM     31  C   UNL     1       7.331  13.140   3.400  1.00  0.00     0.012 A 
ATOM     32  C   UNL     1       9.778  13.061   2.081  1.00  0.00     0.001 A 
ATOM     33  C   UNL     1       7.446  13.651   2.103  1.00  0.00     0.001 A 
ATOM     34  C   UNL     1       8.670  13.611   1.443  1.00  0.00     0.000 A 
ENDBRANCH  21  29
ENDBRANCH   1  14
TORSDOF 9
ENDMDL
MODEL 4
REMARK VINA RESULT:    -6.025      2.797      5.522
REMARK INTER + INTRA:         -11.053
REMARK INTER:                  -8.942
REMARK INTRA:                  -2.111
REMARK UNBOUND:                -1.858
REMARK SMILES CCN(Cc1ccccc1)C(=O)Cn1c(=O)n(CC(F)(F)F)c2cnc(-c3ccccc3)nc21
REMARK SMILES IDX 13 1 11 2 12 3 3 4 2 5 1 6 4 7 5 8 6 9 10 10 7 11 9 12 8 13
REMARK SMILES IDX 14 14 34 15 15 16 33 17 23 18 17 19 16 20 26 21 24 22 25 23
REMARK SMILES IDX 18 24 19 25 20 26 21 27 22 28 27 29 28 30 32 31 29 32 31 33
REMARK SMILES IDX 30 34
REMARK H PARENT
ROOT
ATOM      1  C   UNL     1       7.327  15.024   8.082  1.00  0.00     0.229 C 
ENDROOT
BRANCH   1   2
ATOM      2  C   UNL     1       5.937  15.359   7.532  1.00  0.00     0.243 C 
ATOM      3  O   UNL     1       5.703  16.510   7.147  1.00  0.00    -0.273 OA
BRANCH   2   4
ATOM      4  N   UNL     1       4.970  14.361   7.465  1.00  0.00    -0.337 N 
BRANCH   4   5
ATOM      5  C   UNL     1       4.293  13.768   8.617  1.00  0.00     0.116 C 
ATOM      6  C   UNL     1       3.439  14.787   9.357  1.00  0.00     0.027 C 
ENDBRANCH   4   5
BRANCH   4   7
ATOM      7  C   UNL     1       4.670  13.781   6.155  1.00  0.00     0.155 C 
BRANCH   7   8
ATOM      8  C   UNL     1       3.222  13.996   5.773  1.00  0.00    -0.029 A 
ATOM      9  C   UNL     1       2.405  12.900   5.453  1.00  0.00     0.005 A 
ATOM     10  C   UNL     1       2.675  15.286   5.725  1.00  0.00     0.005 A 
ATOM     11  C   UNL     1       1.071  13.091   5.093  1.00  0.00     0.000 A 
ATOM     12  C   UNL     1       1.339  15.474   5.364  1.00  0.00     0.000 A 
ATOM     13  C   UNL     1       0.538  14.378   5.048  1.00  0.00     0.000 A 
ENDBRANCH   7   8
ENDBRANCH   4   7
ENDBRANCH   2   4
ENDBRANCH   1   2
BRANCH   1  14
ATOM     14  N   UNL     1       8.061  14.154   7.196  1.00  0.00    -0.267 N 
ATOM     15  C   UNL     1       8.130  12.764   7.342  1.00  0.00     0.165 A 
ATOM     16  C   UNL     1       8.510  14.498   5.909  1.00  0.00     0.331 A 
ATOM     17  N   UNL     1       7.708  12.045   8.381  1.00  0.00    -0.208 NA
ATOM     18  C   UNL     1       8.708  12.255   6.198  1.00  0.00     0.108 A 
ATOM     19  N   UNL     1       8.988  13.307   5.324  1.00  0.00    -0.280 N 
ATOM     20  O   UNL     1       8.491  15.593   5.377  1.00  0.00    -0.248 OA
ATOM     21  C   UNL     1       7.901  10.714   8.245  1.00  0.00     0.161 A 
ATOM     22  C   UNL     1       8.858  10.907   6.132  1.00  0.00     0.144 A 
ATOM     23  N   UNL     1       8.465  10.118   7.156  1.00  0.00    -0.234 NA
BRANCH  19  24
ATOM     24  C   UNL     1       9.430  13.194   3.951  1.00  0.00     0.243 C 
BRANCH  24  25
ATOM     25  C   UNL     1       8.304  13.010   2.939  1.00  0.00     0.406 C 
ATOM     26  F   UNL     1       7.705  14.194   2.677  1.00  0.00    -0.169 F 
ATOM     27  F   UNL     1       8.790  12.542   1.766  1.00  0.00    -0.169 F 
ATOM     28  F   UNL     1       7.357  12.153   3.366  1.00  0.00    -0.169 F 
ENDBRANCH  24  25
ENDBRANCH  19  24
BRANCH  21  29
ATOM     29  C   UNL     1       7.478   9.844   9.363  1.00  0.00     0.019 A 
ATOM     30  C   UNL     1       6.995  10.381  10.572  1.00  0.00     0.012 A 
ATOM     31  C   UNL     1       7.538   8.439   9.266  1.00  0.00     0.012 A 
ATOM     32  C   UNL     1       6.594   9.560  11.630  1.00  0.00     0.001 A 
ATOM     33  C   UNL     1       7.136   7.615  10.322  1.00  0.00     0.001 A 
ATOM     34  C   UNL     1       6.664   8.176  11.504  1.00  0.00     0.000 A 
ENDBRANCH  21  29
ENDBRANCH   1  14
TORSDOF 9
ENDMDL
MODEL 5
REMARK VINA RESULT:    -5.992      2.896      5.691
REMARK INTER + INTRA:         -11.002
REMARK INTER:                  -9.496
REMARK INTRA:                  -1.506
REMARK UNBOUND:                -1.858
REMARK SMILES CCN(Cc1ccccc1)C(=O)Cn1c(=O)n(CC(F)(F)F)c2cnc(-c3ccccc3)nc21
REMARK SMILES IDX 13 1 11 2 12 3 3 4 2 5 1 6 4 7 5 8 6 9 10 10 7 11 9 12 8 13
REMARK SMILES IDX 14 14 34 15 15 16 33 17 23 18 17 19 16 20 26 21 24 22 25 23
REMARK SMILES IDX 18 24 19 25 20 26 21 27 22 28 27 29 28 30 32 31 29 32 31 33
REMARK SMILES IDX 30 34
REMARK H PARENT
ROOT
ATOM      1  C   UNL     1       6.407  13.057   6.281  1.00  0.00     0.229 C 
ENDROOT
BRANCH   1   2
ATOM      2  C   UNL     1       6.194  14.141   7.342  1.00  0.00     0.243 C 
ATOM      3  O   UNL     1       7.107  14.394   8.136  1.00  0.00    -0.273 OA
BRANCH   2   4
ATOM      4  N   UNL     1       4.985  14.828   7.385  1.00  0.00    -0.337 N 
BRANCH   4   5
ATOM      5  C   UNL     1       4.138  14.965   8.569  1.00  0.00     0.116 C 
ATOM      6  C   UNL     1       3.997  13.648   9.318  1.00  0.00     0.027 C 
ENDBRANCH   4   5
BRANCH   4   7
ATOM      7  C   UNL     1       4.460  15.375   6.133  1.00  0.00     0.155 C 
BRANCH   7   8
ATOM      8  C   UNL     1       3.148  14.726   5.752  1.00  0.00    -0.029 A 
ATOM      9  C   UNL     1       2.002  15.513   5.553  1.00  0.00     0.005 A 
ATOM     10  C   UNL     1       3.050  13.337   5.599  1.00  0.00     0.005 A 
ATOM     11  C   UNL     1       0.786  14.921   5.210  1.00  0.00     0.000 A 
ATOM     12  C   UNL     1       1.832  12.747   5.255  1.00  0.00     0.000 A 
ATOM     13  C   UNL     1       0.701  13.538   5.061  1.00  0.00     0.000 A 
ENDBRANCH   7   8
ENDBRANCH   4   7
ENDBRANCH   2   4
ENDBRANCH   1   2
BRANCH   1  14
ATOM     14  N   UNL     1       7.789  12.959   5.882  1.00  0.00    -0.267 N 
ATOM     15  C   UNL     1       8.640  11.912   6.256  1.00  0.00     0.165 A 
ATOM     16  C   UNL     1       8.381  13.668   4.822  1.00  0.00     0.331 A 
ATOM     17  N   UNL     1       8.394  10.963   7.157  1.00  0.00    -0.208 NA
ATOM     18  C   UNL     1       9.792  12.027   5.507  1.00  0.00     0.108 A 
ATOM     19  N   UNL     1       9.670  13.124   4.651  1.00  0.00    -0.280 N 
ATOM     20  O   UNL     1       7.895  14.567   4.160  1.00  0.00    -0.248 OA
ATOM     21  C   UNL     1       9.402  10.075   7.310  1.00  0.00     0.161 A 
ATOM     22  C   UNL     1      10.754  11.090   5.711  1.00  0.00     0.144 A 
ATOM     23  N   UNL     1      10.577  10.107   6.621  1.00  0.00    -0.234 NA
BRANCH  19  24
ATOM     24  C   UNL     1      10.573  13.488   3.581  1.00  0.00     0.243 C 
BRANCH  24  25
ATOM     25  C   UNL     1      10.404  12.666   2.307  1.00  0.00     0.406 C 
ATOM     26  F   UNL     1       9.097  12.384   2.097  1.00  0.00    -0.169 F 
ATOM     27  F   UNL     1      10.838  13.363   1.231  1.00  0.00    -0.169 F 
ATOM     28  F   UNL     1      11.078  11.501   2.345  1.00  0.00    -0.169 F 
ENDBRANCH  24  25
ENDBRANCH  19  24
BRANCH  21  29
ATOM     29  C   UNL     1       9.220   8.999   8.307  1.00  0.00     0.019 A 
ATOM     30  C   UNL     1      10.257   8.096   8.614  1.00  0.00     0.012 A 
ATOM     31  C   UNL     1       8.002   8.831   8.996  1.00  0.00     0.012 A 
ATOM     32  C   UNL     1      10.087   7.078   9.557  1.00  0.00     0.001 A 
ATOM     33  C   UNL     1       7.829   7.814   9.941  1.00  0.00     0.001 A 
ATOM     34  C   UNL     1       8.872   6.938  10.221  1.00  0.00     0.000 A 
ENDBRANCH  21  29
ENDBRANCH   1  14
TORSDOF 9
ENDMDL
MODEL 6
REMARK VINA RESULT:    -5.915      2.504      5.636
REMARK INTER + INTRA:         -10.884
REMARK INTER:                  -8.066
REMARK INTRA:                  -2.819
REMARK UNBOUND:                -1.858
REMARK SMILES CCN(Cc1ccccc1)C(=O)Cn1c(=O)n(CC(F)(F)F)c2cnc(-c3ccccc3)nc21
REMARK SMILES IDX 13 1 11 2 12 3 3 4 2 5 1 6 4 7 5 8 6 9 10 10 7 11 9 12 8 13
REMARK SMILES IDX 14 14 34 15 15 16 33 17 23 18 17 19 16 20 26 21 24 22 25 23
REMARK SMILES IDX 18 24 19 25 20 26 21 27 22 28 27 29 28 30 32 31 29 32 31 33
REMARK SMILES IDX 30 34
REMARK H PARENT
ROOT
ATOM      1  C   UNL     1       7.827  12.247   3.795  1.00  0.00     0.229 C 
ENDROOT
BRANCH   1   2
ATOM      2  C   UNL     1       7.948  13.389   2.781  1.00  0.00     0.243 C 
ATOM      3  O   UNL     1       7.056  13.544   1.940  1.00  0.00    -0.273 OA
BRANCH   2   4
ATOM      4  N   UNL     1       9.051  14.235   2.833  1.00  0.00    -0.337 N 
BRANCH   4   5
ATOM      5  C   UNL     1      10.434  13.801   3.025  1.00  0.00     0.116 C 
ATOM      6  C   UNL     1      10.850  12.765   1.993  1.00  0.00     0.027 C 
ENDBRANCH   4   5
BRANCH   4   7
ATOM      7  C   UNL     1       8.813  15.679   2.794  1.00  0.00     0.155 C 
BRANCH   7   8
ATOM      8  C   UNL     1       8.036  16.144   4.005  1.00  0.00    -0.029 A 
ATOM      9  C   UNL     1       8.668  16.249   5.254  1.00  0.00     0.005 A 
ATOM     10  C   UNL     1       6.676  16.472   3.906  1.00  0.00     0.005 A 
ATOM     11  C   UNL     1       7.956  16.670   6.378  1.00  0.00     0.000 A 
ATOM     12  C   UNL     1       5.966  16.893   5.031  1.00  0.00     0.000 A 
ATOM     13  C   UNL     1       6.605  16.992   6.266  1.00  0.00     0.000 A 
ENDBRANCH   7   8
ENDBRANCH   4   7
ENDBRANCH   2   4
ENDBRANCH   1   2
BRANCH   1  14
ATOM     14  N   UNL     1       7.859  12.728   5.154  1.00  0.00    -0.267 N 
ATOM     15  C   UNL     1       6.727  13.143   5.865  1.00  0.00     0.165 A 
ATOM     16  C   UNL     1       8.919  12.538   6.058  1.00  0.00     0.331 A 
ATOM     17  N   UNL     1       5.502  13.337   5.380  1.00  0.00    -0.208 NA
ATOM     18  C   UNL     1       7.102  13.305   7.182  1.00  0.00     0.108 A 
ATOM     19  N   UNL     1       8.454  12.980   7.313  1.00  0.00    -0.280 N 
ATOM     20  O   UNL     1      10.022  12.075   5.831  1.00  0.00    -0.248 OA
ATOM     21  C   UNL     1       4.601  13.736   6.305  1.00  0.00     0.161 A 
ATOM     22  C   UNL     1       6.136  13.698   8.053  1.00  0.00     0.144 A 
ATOM     23  N   UNL     1       4.875  13.927   7.626  1.00  0.00    -0.234 NA
BRANCH  19  24
ATOM     24  C   UNL     1       9.193  12.846   8.550  1.00  0.00     0.243 C 
BRANCH  24  25
ATOM     25  C   UNL     1       8.831  11.612   9.369  1.00  0.00     0.406 C 
ATOM     26  F   UNL     1       9.898  11.191  10.087  1.00  0.00    -0.169 F 
ATOM     27  F   UNL     1       7.846  11.899  10.252  1.00  0.00    -0.169 F 
ATOM     28  F   UNL     1       8.416  10.583   8.605  1.00  0.00    -0.169 F 
ENDBRANCH  24  25
ENDBRANCH  19  24
BRANCH  21  29
ATOM     29  C   UNL     1       3.218  13.994   5.846  1.00  0.00     0.019 A 
ATOM     30  C   UNL     1       2.381  12.949   5.409  1.00  0.00     0.012 A 
ATOM     31  C   UNL     1       2.679  15.295   5.829  1.00  0.00     0.012 A 
ATOM     32  C   UNL     1       1.074  13.190   4.976  1.00  0.00     0.001 A 
ATOM     33  C   UNL     1       1.371  15.540   5.398  1.00  0.00     0.001 A 
ATOM     34  C   UNL     1       0.569  14.487   4.971  1.00  0.00     0.000 A 
ENDBRANCH  21  29
ENDBRANCH   1  14
TORSDOF 9
ENDMDL
MODEL 7
REMARK VINA RESULT:    -5.898      4.473      6.307
REMARK INTER + INTRA:         -10.859
REMARK INTER:                  -7.891
REMARK INTRA:                  -2.968
REMARK UNBOUND:                -1.858
REMARK SMILES CCN(Cc1ccccc1)C(=O)Cn1c(=O)n(CC(F)(F)F)c2cnc(-c3ccccc3)nc21
REMARK SMILES IDX 13 1 11 2 12 3 3 4 2 5 1 6 4 7 5 8 6 9 10 10 7 11 9 12 8 13
REMARK SMILES IDX 14 14 34 15 15 16 33 17 23 18 17 19 16 20 26 21 24 22 25 23
REMARK SMILES IDX 18 24 19 25 20 26 21 27 22 28 27 29 28 30 32 31 29 32 31 33
REMARK SMILES IDX 30 34
REMARK H PARENT
ROOT
ATOM      1  C   UNL     1       1.929  18.332   6.970  1.00  0.00     0.229 C 
ENDROOT
BRANCH   1   2
ATOM      2  C   UNL     1       1.245  17.896   5.670  1.00  0.00     0.243 C 
ATOM      3  O   UNL     1       1.836  18.055   4.596  1.00  0.00    -0.273 OA
BRANCH   2   4
ATOM      4  N   UNL     1      -0.020  17.320   5.724  1.00  0.00    -0.337 N 
BRANCH   4   5
ATOM      5  C   UNL     1      -1.114  17.774   6.580  1.00  0.00     0.116 C 
ATOM      6  C   UNL     1      -1.765  19.040   6.043  1.00  0.00     0.027 C 
ENDBRANCH   4   5
BRANCH   4   7
ATOM      7  C   UNL     1      -0.256  16.105   4.942  1.00  0.00     0.155 C 
BRANCH   7   8
ATOM      8  C   UNL     1       0.331  14.887   5.621  1.00  0.00    -0.029 A 
ATOM      9  C   UNL     1       1.365  14.164   5.005  1.00  0.00     0.005 A 
ATOM     10  C   UNL     1      -0.147  14.458   6.867  1.00  0.00     0.005 A 
ATOM     11  C   UNL     1       1.906  13.034   5.622  1.00  0.00     0.000 A 
ATOM     12  C   UNL     1       0.395  13.328   7.482  1.00  0.00     0.000 A 
ATOM     13  C   UNL     1       1.421  12.617   6.860  1.00  0.00     0.000 A 
ENDBRANCH   7   8
ENDBRANCH   4   7
ENDBRANCH   2   4
ENDBRANCH   1   2
BRANCH   1  14
ATOM     14  N   UNL     1       2.050  17.242   7.906  1.00  0.00    -0.267 N 
ATOM     15  C   UNL     1       3.001  16.220   7.802  1.00  0.00     0.165 A 
ATOM     16  C   UNL     1       1.498  17.217   9.198  1.00  0.00     0.331 A 
ATOM     17  N   UNL     1       3.805  15.977   6.768  1.00  0.00    -0.208 NA
ATOM     18  C   UNL     1       2.972  15.505   8.980  1.00  0.00     0.108 A 
ATOM     19  N   UNL     1       2.025  16.074   9.834  1.00  0.00    -0.280 N 
ATOM     20  O   UNL     1       0.726  18.016   9.699  1.00  0.00    -0.248 OA
ATOM     21  C   UNL     1       4.629  14.921   6.949  1.00  0.00     0.161 A 
ATOM     22  C   UNL     1       3.838  14.464   9.089  1.00  0.00     0.144 A 
ATOM     23  N   UNL     1       4.672  14.152   8.073  1.00  0.00    -0.234 NA
BRANCH  19  24
ATOM     24  C   UNL     1       1.807  15.741  11.225  1.00  0.00     0.243 C 
BRANCH  24  25
ATOM     25  C   UNL     1       0.437  15.139  11.521  1.00  0.00     0.406 C 
ATOM     26  F   UNL     1      -0.399  16.083  12.009  1.00  0.00    -0.169 F 
ATOM     27  F   UNL     1      -0.125  14.657  10.387  1.00  0.00    -0.169 F 
ATOM     28  F   UNL     1       0.493  14.133  12.415  1.00  0.00    -0.169 F 
ENDBRANCH  24  25
ENDBRANCH  19  24
BRANCH  21  29
ATOM     29  C   UNL     1       5.543  14.568   5.840  1.00  0.00     0.019 A 
ATOM     30  C   UNL     1       6.201  15.559   5.086  1.00  0.00     0.012 A 
ATOM     31  C   UNL     1       5.797  13.227   5.493  1.00  0.00     0.012 A 
ATOM     32  C   UNL     1       7.066  15.228   4.039  1.00  0.00     0.001 A 
ATOM     33  C   UNL     1       6.662  12.892   4.447  1.00  0.00     0.001 A 
ATOM     34  C   UNL     1       7.297  13.894   3.720  1.00  0.00     0.000 A 
ENDBRANCH  21  29
ENDBRANCH   1  14
TORSDOF 9
ENDMDL
MODEL 8
REMARK VINA RESULT:    -5.633      2.328      4.287
REMARK INTER + INTRA:         -10.454
REMARK INTER:                  -7.652
REMARK INTRA:                  -2.802
REMARK UNBOUND:                -1.858
REMARK SMILES CCN(Cc1ccccc1)C(=O)Cn1c(=O)n(CC(F)(F)F)c2cnc(-c3ccccc3)nc21
REMARK SMILES IDX 13 1 11 2 12 3 3 4 2 5 1 6 4 7 5 8 6 9 10 10 7 11 9 12 8 13
REMARK SMILES IDX 14 14 34 15 15 16 33 17 23 18 17 19 16 20 26 21 24 22 25 23
REMARK SMILES IDX 18 24 19 25 20 26 21 27 22 28 27 29 28 30 32 31 29 32 31 33
REMARK SMILES IDX 30 34
REMARK H PARENT
ROOT
ATOM      1  C   UNL     1       6.048  14.232  10.043  1.00  0.00     0.229 C 
ENDROOT
BRANCH   1   2
ATOM      2  C   UNL     1       5.122  13.316  10.848  1.00  0.00     0.243 C 
ATOM      3  O   UNL     1       5.597  12.323  11.410  1.00  0.00    -0.273 OA
BRANCH   2   4
ATOM      4  N   UNL     1       3.769  13.624  10.942  1.00  0.00    -0.337 N 
BRANCH   4   5
ATOM      5  C   UNL     1       3.108  14.154  12.134  1.00  0.00     0.116 C 
ATOM      6  C   UNL     1       2.382  13.065  12.909  1.00  0.00     0.027 C 
ENDBRANCH   4   5
BRANCH   4   7
ATOM      7  C   UNL     1       2.910  13.307   9.800  1.00  0.00     0.155 C 
BRANCH   7   8
ATOM      8  C   UNL     1       2.058  14.491   9.401  1.00  0.00    -0.029 A 
ATOM      9  C   UNL     1       0.712  14.307   9.048  1.00  0.00     0.005 A 
ATOM     10  C   UNL     1       2.595  15.786   9.371  1.00  0.00     0.005 A 
ATOM     11  C   UNL     1      -0.078  15.394   8.672  1.00  0.00     0.000 A 
ATOM     12  C   UNL     1       1.803  16.872   8.995  1.00  0.00     0.000 A 
ATOM     13  C   UNL     1       0.468  16.676   8.645  1.00  0.00     0.000 A 
ENDBRANCH   7   8
ENDBRANCH   4   7
ENDBRANCH   2   4
ENDBRANCH   1   2
BRANCH   1  14
ATOM     14  N   UNL     1       6.584  13.568   8.880  1.00  0.00    -0.267 N 
ATOM     15  C   UNL     1       5.942  13.524   7.637  1.00  0.00     0.165 A 
ATOM     16  C   UNL     1       7.925  13.182   8.712  1.00  0.00     0.331 A 
ATOM     17  N   UNL     1       4.695  13.906   7.365  1.00  0.00    -0.208 NA
ATOM     18  C   UNL     1       6.843  13.022   6.722  1.00  0.00     0.108 A 
ATOM     19  N   UNL     1       8.053  12.765   7.371  1.00  0.00    -0.280 N 
ATOM     20  O   UNL     1       8.820  13.204   9.537  1.00  0.00    -0.248 OA
ATOM     21  C   UNL     1       4.343  13.753   6.069  1.00  0.00     0.161 A 
ATOM     22  C   UNL     1       6.417  12.907   5.438  1.00  0.00     0.144 A 
ATOM     23  N   UNL     1       5.159  13.262   5.095  1.00  0.00    -0.234 NA
BRANCH  19  24
ATOM     24  C   UNL     1       9.306  12.400   6.746  1.00  0.00     0.243 C 
BRANCH  24  25
ATOM     25  C   UNL     1       9.595  10.903   6.740  1.00  0.00     0.406 C 
ATOM     26  F   UNL     1      10.403  10.581   5.704  1.00  0.00    -0.169 F 
ATOM     27  F   UNL     1      10.237  10.537   7.874  1.00  0.00    -0.169 F 
ATOM     28  F   UNL     1       8.477  10.158   6.639  1.00  0.00    -0.169 F 
ENDBRANCH  24  25
ENDBRANCH  19  24
BRANCH  21  29
ATOM     29  C   UNL     1       2.966  14.134   5.685  1.00  0.00     0.019 A 
ATOM     30  C   UNL     1       2.558  15.482   5.653  1.00  0.00     0.012 A 
ATOM     31  C   UNL     1       2.005  13.166   5.332  1.00  0.00     0.012 A 
ATOM     32  C   UNL     1       1.258  15.845   5.288  1.00  0.00     0.001 A 
ATOM     33  C   UNL     1       0.704  13.526   4.966  1.00  0.00     0.001 A 
ATOM     34  C   UNL     1       0.331  14.866   4.944  1.00  0.00     0.000 A 
ENDBRANCH  21  29
ENDBRANCH   1  14
TORSDOF 9
ENDMDL
MODEL 9
REMARK VINA RESULT:    -5.539      1.796      2.379
REMARK INTER + INTRA:         -10.311
REMARK INTER:                  -8.369
REMARK INTRA:                  -1.942
REMARK UNBOUND:                -1.858
REMARK SMILES CCN(Cc1ccccc1)C(=O)Cn1c(=O)n(CC(F)(F)F)c2cnc(-c3ccccc3)nc21
REMARK SMILES IDX 13 1 11 2 12 3 3 4 2 5 1 6 4 7 5 8 6 9 10 10 7 11 9 12 8 13
REMARK SMILES IDX 14 14 34 15 15 16 33 17 23 18 17 19 16 20 26 21 24 22 25 23
REMARK SMILES IDX 18 24 19 25 20 26 21 27 22 28 27 29 28 30 32 31 29 32 31 33
REMARK SMILES IDX 30 34
REMARK H PARENT
ROOT
ATOM      1  C   UNL     1       6.528  14.459   8.847  1.00  0.00     0.229 C 
ENDROOT
BRANCH   1   2
ATOM      2  C   UNL     1       5.012  14.624   8.992  1.00  0.00     0.243 C 
ATOM      3  O   UNL     1       4.570  15.391   9.854  1.00  0.00    -0.273 OA
BRANCH   2   4
ATOM      4  N   UNL     1       4.163  13.919   8.144  1.00  0.00    -0.337 N 
BRANCH   4   5
ATOM      5  C   UNL     1       4.160  14.017   6.686  1.00  0.00     0.116 C 
ATOM      6  C   UNL     1       3.993  15.455   6.217  1.00  0.00     0.027 C 
ENDBRANCH   4   5
BRANCH   4   7
ATOM      7  C   UNL     1       3.123  13.086   8.750  1.00  0.00     0.155 C 
BRANCH   7   8
ATOM      8  C   UNL     1       1.742  13.522   8.316  1.00  0.00    -0.029 A 
ATOM      9  C   UNL     1       1.223  14.754   8.744  1.00  0.00     0.005 A 
ATOM     10  C   UNL     1       0.956  12.707   7.490  1.00  0.00     0.005 A 
ATOM     11  C   UNL     1      -0.054  15.161   8.354  1.00  0.00     0.000 A 
ATOM     12  C   UNL     1      -0.321  13.115   7.101  1.00  0.00     0.000 A 
ATOM     13  C   UNL     1      -0.825  14.341   7.533  1.00  0.00     0.000 A 
ENDBRANCH   7   8
ENDBRANCH   4   7
ENDBRANCH   2   4
ENDBRANCH   1   2
BRANCH   1  14
ATOM     14  N   UNL     1       6.919  13.071   8.834  1.00  0.00    -0.267 N 
ATOM     15  C   UNL     1       7.511  12.433   7.738  1.00  0.00     0.165 A 
ATOM     16  C   UNL     1       7.088  12.265   9.974  1.00  0.00     0.331 A 
ATOM     17  N   UNL     1       7.641  12.916   6.504  1.00  0.00    -0.208 NA
ATOM     18  C   UNL     1       7.956  11.200   8.167  1.00  0.00     0.108 A 
ATOM     19  N   UNL     1       7.667  11.060   9.526  1.00  0.00    -0.280 N 
ATOM     20  O   UNL     1       6.810  12.533  11.129  1.00  0.00    -0.248 OA
ATOM     21  C   UNL     1       8.261  12.075   5.646  1.00  0.00     0.161 A 
ATOM     22  C   UNL     1       8.578  10.417   7.247  1.00  0.00     0.144 A 
ATOM     23  N   UNL     1       8.732  10.839   5.974  1.00  0.00    -0.234 NA
BRANCH  19  24
ATOM     24  C   UNL     1       8.119   9.999  10.399  1.00  0.00     0.243 C 
BRANCH  24  25
ATOM     25  C   UNL     1       7.212   8.773  10.423  1.00  0.00     0.406 C 
ATOM     26  F   UNL     1       5.922   9.136  10.237  1.00  0.00    -0.169 F 
ATOM     27  F   UNL     1       7.535   7.923   9.420  1.00  0.00    -0.169 F 
ATOM     28  F   UNL     1       7.287   8.092  11.582  1.00  0.00    -0.169 F 
ENDBRANCH  24  25
ENDBRANCH  19  24
BRANCH  21  29
ATOM     29  C   UNL     1       8.430  12.527   4.248  1.00  0.00     0.019 A 
ATOM     30  C   UNL     1       7.361  13.087   3.522  1.00  0.00     0.012 A 
ATOM     31  C   UNL     1       9.668  12.420   3.584  1.00  0.00     0.012 A 
ATOM     32  C   UNL     1       7.519  13.516   2.200  1.00  0.00     0.001 A 
ATOM     33  C   UNL     1       9.830  12.848   2.262  1.00  0.00     0.001 A 
ATOM     34  C   UNL     1       8.754  13.396   1.571  1.00  0.00     0.000 A 
ENDBRANCH  21  29
ENDBRANCH   1  14
TORSDOF 9
ENDMDL
MODEL 10
REMARK VINA RESULT:    -5.509      3.204      4.678
REMARK INTER + INTRA:         -10.266
REMARK INTER:                  -7.761
REMARK INTRA:                  -2.505
REMARK UNBOUND:                -1.858
REMARK SMILES CCN(Cc1ccccc1)C(=O)Cn1c(=O)n(CC(F)(F)F)c2cnc(-c3ccccc3)nc21
REMARK SMILES IDX 13 1 11 2 12 3 3 4 2 5 1 6 4 7 5 8 6 9 10 10 7 11 9 12 8 13
REMARK SMILES IDX 14 14 34 15 15 16 33 17 23 18 17 19 16 20 26 21 24 22 25 23
REMARK SMILES IDX 18 24 19 25 20 26 21 27 22 28 27 29 28 30 32 31 29 32 31 33
REMARK SMILES IDX 30 34
REMARK H PARENT
ROOT
ATOM      1  C   UNL     1       2.176  17.592   8.077  1.00  0.00     0.229 C 
ENDROOT
BRANCH   1   2
ATOM      2  C   UNL     1       0.753  17.425   7.536  1.00  0.00     0.243 C 
ATOM      3  O   UNL     1      -0.196  17.431   8.326  1.00  0.00    -0.273 OA
BRANCH   2   4
ATOM      4  N   UNL     1       0.556  17.282   6.166  1.00  0.00    -0.337 N 
BRANCH   4   5
ATOM      5  C   UNL     1       1.030  18.216   5.146  1.00  0.00     0.116 C 
ATOM      6  C   UNL     1       0.092  18.270   3.950  1.00  0.00     0.027 C 
ENDBRANCH   4   5
BRANCH   4   7
ATOM      7  C   UNL     1      -0.273  16.167   5.703  1.00  0.00     0.155 C 
BRANCH   7   8
ATOM      8  C   UNL     1       0.395  14.835   5.963  1.00  0.00    -0.029 A 
ATOM      9  C   UNL     1       1.521  14.452   5.217  1.00  0.00     0.005 A 
ATOM     10  C   UNL     1      -0.097  13.962   6.943  1.00  0.00     0.005 A 
ATOM     11  C   UNL     1       2.138  13.221   5.445  1.00  0.00     0.000 A 
ATOM     12  C   UNL     1       0.523  12.732   7.170  1.00  0.00     0.000 A 
ATOM     13  C   UNL     1       1.639  12.362   6.422  1.00  0.00     0.000 A 
ENDBRANCH   7   8
ENDBRANCH   4   7
ENDBRANCH   2   4
ENDBRANCH   1   2
BRANCH   1  14
ATOM     14  N   UNL     1       2.742  16.336   8.502  1.00  0.00    -0.267 N 
ATOM     15  C   UNL     1       3.826  15.712   7.873  1.00  0.00     0.165 A 
ATOM     16  C   UNL     1       2.540  15.738   9.758  1.00  0.00     0.331 A 
ATOM     17  N   UNL     1       4.385  16.053   6.713  1.00  0.00    -0.208 NA
ATOM     18  C   UNL     1       4.233  14.673   8.683  1.00  0.00     0.108 A 
ATOM     19  N   UNL     1       3.429  14.645   9.825  1.00  0.00    -0.280 N 
ATOM     20  O   UNL     1       1.769  16.081  10.635  1.00  0.00    -0.248 OA
ATOM     21  C   UNL     1       5.425  15.269   6.352  1.00  0.00     0.161 A 
ATOM     22  C   UNL     1       5.292  13.938   8.256  1.00  0.00     0.144 A 
ATOM     23  N   UNL     1       5.898  14.219   7.082  1.00  0.00    -0.234 NA
BRANCH  19  24
ATOM     24  C   UNL     1       3.630  13.829  11.003  1.00  0.00     0.243 C 
BRANCH  24  25
ATOM     25  C   UNL     1       3.422  12.335  10.777  1.00  0.00     0.406 C 
ATOM     26  F   UNL     1       2.690  12.123   9.659  1.00  0.00    -0.169 F 
ATOM     27  F   UNL     1       4.610  11.711  10.600  1.00  0.00    -0.169 F 
ATOM     28  F   UNL     1       2.789  11.737  11.805  1.00  0.00    -0.169 F 
ENDBRANCH  24  25
ENDBRANCH  19  24
BRANCH  21  29
ATOM     29  C   UNL     1       6.091  15.567   5.066  1.00  0.00     0.019 A 
ATOM     30  C   UNL     1       6.805  14.578   4.361  1.00  0.00     0.012 A 
ATOM     31  C   UNL     1       6.038  16.851   4.488  1.00  0.00     0.012 A 
ATOM     32  C   UNL     1       7.434  14.857   3.143  1.00  0.00     0.001 A 
ATOM     33  C   UNL     1       6.665  17.134   3.270  1.00  0.00     0.001 A 
ATOM     34  C   UNL     1       7.364  16.136   2.598  1.00  0.00     0.000 A 
ENDBRANCH  21  29
ENDBRANCH   1  14
TORSDOF 9
ENDMDL
