REMARK SMILES CCN(Cc1cc(F)ccc1C(F)(F)F)C(=O)Cn1c(=O)n(C)c2cnc(-c3ccccc3)nc21
REMARK SMILES IDX 3 1 2 2 1 3 16 4 17 5 18 6 19 7 20 8 35 9 21 10 22 11 24 12
REMARK SMILES IDX 34 13 25 14 27 15 26 16 23 17 28 18 29 19 33 20 30 21 32 22
REMARK SMILES IDX 31 23 4 24 5 25 6 26 11 27 7 28 10 29 9 30 8 31 12 32 13 33
REMARK SMILES IDX 14 34 15 35
REMARK H PARENT
ROOT
ATOM      1  N   UNL     1      -1.381  -0.221   0.256  1.00  0.00    -0.337 N 
ENDROOT
BRANCH   1   2
ATOM      2  C   UNL     1      -1.932  -1.523  -0.133  1.00  0.00     0.116 C 
ATOM      3  C   UNL     1      -3.138  -1.938   0.696  1.00  0.00     0.027 C 
ENDBRANCH   1   2
BRANCH   1   4
ATOM      4  C   UNL     1      -0.479  -0.029   1.303  1.00  0.00     0.243 C 
ATOM      5  O   UNL     1      -0.185   1.105   1.698  1.00  0.00    -0.273 OA
BRANCH   4   6
ATOM      6  C   UNL     1       0.136  -1.250   1.999  1.00  0.00     0.229 C 
BRANCH   6   7
ATOM      7  N   UNL     1       1.065  -1.997   1.190  1.00  0.00    -0.267 N 
ATOM      8  C   UNL     1       1.071  -3.389   1.000  1.00  0.00     0.330 A 
ATOM      9  C   UNL     1       2.184  -1.445   0.560  1.00  0.00     0.165 A 
ATOM     10  O   UNL     1       0.254  -4.186   1.430  1.00  0.00    -0.248 OA
ATOM     11  N   UNL     1       2.201  -3.675   0.208  1.00  0.00    -0.292 N 
ATOM     12  C   UNL     1       2.869  -2.476  -0.043  1.00  0.00     0.107 A 
ATOM     13  N   UNL     1       2.539  -0.165   0.532  1.00  0.00    -0.208 NA
ATOM     14  C   UNL     1       3.999  -2.152  -0.723  1.00  0.00     0.144 A 
ATOM     15  C   UNL     1       3.667   0.083  -0.167  1.00  0.00     0.161 A 
ATOM     16  N   UNL     1       4.415  -0.868  -0.798  1.00  0.00    -0.234 NA
ATOM     17  C   UNL     1       2.624  -4.973  -0.231  1.00  0.00     0.155 C 
BRANCH  15  18
ATOM     18  C   UNL     1       4.115   1.488  -0.260  1.00  0.00     0.019 A 
ATOM     19  C   UNL     1       5.301   1.842  -0.932  1.00  0.00     0.012 A 
ATOM     20  C   UNL     1       3.370   2.536   0.319  1.00  0.00     0.012 A 
ATOM     21  C   UNL     1       5.723   3.173  -1.021  1.00  0.00     0.001 A 
ATOM     22  C   UNL     1       3.789   3.867   0.232  1.00  0.00     0.001 A 
ATOM     23  C   UNL     1       4.966   4.185  -0.438  1.00  0.00     0.000 A 
ENDBRANCH  15  18
ENDBRANCH   6   7
ENDBRANCH   4   6
ENDBRANCH   1   4
BRANCH   1  24
ATOM     24  C   UNL     1      -1.877   0.965  -0.449  1.00  0.00     0.155 C 
BRANCH  24  25
ATOM     25  C   UNL     1      -3.267   1.400  -0.016  1.00  0.00    -0.013 A 
ATOM     26  C   UNL     1      -3.452   1.832   1.312  1.00  0.00     0.045 A 
ATOM     27  C   UNL     1      -4.378   1.411  -0.897  1.00  0.00     0.061 A 
ATOM     28  C   UNL     1      -4.703   2.237   1.761  1.00  0.00     0.123 A 
ATOM     29  C   UNL     1      -5.636   1.827  -0.412  1.00  0.00     0.016 A 
ATOM     30  C   UNL     1      -5.798   2.236   0.912  1.00  0.00     0.040 A 
ATOM     31  F   UNL     1      -4.854   2.635   3.030  1.00  0.00    -0.207 F 
BRANCH  27  32
ATOM     32  C   UNL     1      -4.259   0.990  -2.347  1.00  0.00     0.416 C 
ATOM     33  F   UNL     1      -3.350   1.735  -3.034  1.00  0.00    -0.166 F 
ATOM     34  F   UNL     1      -5.424   1.095  -3.045  1.00  0.00    -0.166 F 
ATOM     35  F   UNL     1      -3.866  -0.306  -2.483  1.00  0.00    -0.166 F 
ENDBRANCH  27  32
ENDBRANCH  24  25
ENDBRANCH   1  24
TORSDOF 8
