REMARK SMILES CCN(Cc1ccccc1)C(=O)Cn1c(=O)n(C)c2cnc(-c3ccccc3)nc21
REMARK SMILES IDX 12 1 11 2 13 3 14 4 16 5 15 6 17 7 30 8 19 9 29 10 20 11
REMARK SMILES IDX 22 12 21 13 18 14 23 15 24 16 28 17 25 18 27 19 26 20 3 21
REMARK SMILES IDX 4 22 5 23 6 24 10 25 7 26 9 27 8 28 2 29 1 30
REMARK H PARENT
ROOT
ATOM      1  O   UNL     1       1.296   1.558   1.167  1.00  0.00    -0.273 OA
ATOM      2  C   UNL     1       1.575   1.584  -0.034  1.00  0.00     0.243 C 
ENDROOT
BRANCH   2   3
ATOM      3  C   UNL     1       0.518   1.927  -1.070  1.00  0.00     0.229 C 
BRANCH   3   4
ATOM      4  N   UNL     1      -0.733   2.217  -0.420  1.00  0.00    -0.267 N 
ATOM      5  O   UNL     1      -0.606   4.557  -0.039  1.00  0.00    -0.248 OA
ATOM      6  C   UNL     1      -1.191   3.486   0.038  1.00  0.00     0.330 A 
ATOM      7  N   UNL     1      -2.474   3.240   0.604  1.00  0.00    -0.292 N 
ATOM      8  C   UNL     1      -1.706   1.241  -0.139  1.00  0.00     0.165 A 
ATOM      9  C   UNL     1      -2.762   1.878   0.485  1.00  0.00     0.107 A 
ATOM     10  N   UNL     1      -1.667  -0.070  -0.404  1.00  0.00    -0.208 NA
ATOM     11  C   UNL     1      -3.841   1.127   0.859  1.00  0.00     0.144 A 
ATOM     12  C   UNL     1      -2.779  -0.724   0.004  1.00  0.00     0.161 A 
ATOM     13  N   UNL     1      -3.872  -0.203   0.624  1.00  0.00    -0.234 NA
ATOM     14  C   UNL     1      -3.333   4.231   1.200  1.00  0.00     0.155 C 
BRANCH  12  15
ATOM     15  C   UNL     1      -2.811  -2.142  -0.246  1.00  0.00     0.019 A 
ATOM     16  C   UNL     1      -4.030  -2.790  -0.465  1.00  0.00     0.012 A 
ATOM     17  C   UNL     1      -1.623  -2.878  -0.275  1.00  0.00     0.012 A 
ATOM     18  C   UNL     1      -4.061  -4.163  -0.710  1.00  0.00     0.001 A 
ATOM     19  C   UNL     1      -1.655  -4.251  -0.519  1.00  0.00     0.001 A 
ATOM     20  C   UNL     1      -2.873  -4.894  -0.737  1.00  0.00     0.000 A 
ENDBRANCH  12  15
ENDBRANCH   3   4
ENDBRANCH   2   3
BRANCH   2  21
ATOM     21  N   UNL     1       2.853   1.310  -0.535  1.00  0.00    -0.337 N 
BRANCH  21  22
ATOM     22  C   UNL     1       3.976   0.967   0.334  1.00  0.00     0.155 C 
BRANCH  22  23
ATOM     23  C   UNL     1       4.078  -0.513   0.561  1.00  0.00    -0.029 A 
ATOM     24  C   UNL     1       3.408  -1.092   1.633  1.00  0.00     0.005 A 
ATOM     25  C   UNL     1       4.842  -1.291  -0.301  1.00  0.00     0.005 A 
ATOM     26  C   UNL     1       3.502  -2.467   1.845  1.00  0.00     0.000 A 
ATOM     27  C   UNL     1       4.936  -2.667  -0.089  1.00  0.00     0.000 A 
ATOM     28  C   UNL     1       4.267  -3.255   0.984  1.00  0.00     0.000 A 
ENDBRANCH  22  23
ENDBRANCH  21  22
BRANCH  21  29
ATOM     29  C   UNL     1       3.158   1.348  -1.960  1.00  0.00     0.116 C 
ATOM     30  C   UNL     1       3.608   2.727  -2.395  1.00  0.00     0.027 C 
ENDBRANCH  21  29
ENDBRANCH   2  21
TORSDOF 7
