MODEL 1
REMARK VINA RESULT:    -4.642      0.000      0.000
REMARK INTER + INTRA:          -7.487
REMARK INTER:                  -6.271
REMARK INTRA:                  -1.216
REMARK UNBOUND:                -1.216
REMARK  Name = docking/18F-GE-180.pdb
REMARK  9 active torsions:
REMARK  status: ('A' for Active; 'I' for Inactive)
REMARK    1  A    between atoms: O_3  and  C_16
REMARK    2  A    between atoms: O_3  and  C_25
REMARK    3  A    between atoms: N_4  and  C_15
REMARK    4  A    between atoms: N_5  and  C_21
REMARK    5  A    between atoms: N_5  and  C_22
REMARK    6  A    between atoms: C_6  and  C_14
REMARK    7  A    between atoms: C_15  and  C_19
REMARK    8  A    between atoms: C_21  and  C_23
REMARK    9  A    between atoms: C_22  and  C_24
REMARK                            x       y       z     vdW  Elec       q    Type
REMARK                         _______ _______ _______ _____ _____    ______ ____
ROOT
ATOM      1  N   UNL     1       0.531  16.532   5.555  0.00  0.00    -0.341 N 
ATOM      2  C   UNL     1       3.366  14.182   5.702  0.00  0.00    +0.107 C 
ATOM      3  C   UNL     1       2.448  15.385   5.627  0.00  0.00    -0.004 A 
ATOM      4  C   UNL     1       1.074  15.274   5.502  0.00  0.00    +0.024 A 
ATOM      5  C   UNL     1       2.545  12.878   5.887  0.00  0.00    +0.018 C 
ATOM      6  C   UNL     1       0.315  13.993   5.412  0.00  0.00    +0.054 C 
ATOM      7  C   UNL     1       1.270  12.851   5.034  0.00  0.00    +0.007 C 
ATOM      8  C   UNL     1       2.764  16.782   5.622  0.00  0.00    +0.046 A 
ATOM      9  C   UNL     1       1.545  17.476   5.604  0.00  0.00    +0.053 A 
ATOM     10  C   UNL     1       3.983  17.513   5.653  0.00  0.00    +0.130 A 
ATOM     11  C   UNL     1       1.493  18.877   5.651  0.00  0.00    +0.026 A 
ATOM     12  C   UNL     1       3.920  18.912   5.718  0.00  0.00    +0.046 A 
ATOM     13  C   UNL     1       2.698  19.578   5.725  0.00  0.00    +0.006 A 
ENDROOT
BRANCH   2  16
ATOM     14  O   UNL     1       4.026  14.722   7.972  0.00  0.00    -0.275 OA
ATOM     15  N   UNL     1       5.659  13.762   6.685  0.00  0.00    -0.302 N 
ATOM     16  C   UNL     1       4.368  14.272   6.872  0.00  0.00    +0.223 C 
BRANCH  15  17
ATOM     17  C   UNL     1       6.128  13.056   5.493  0.00  0.00    +0.104 C 
ATOM     18  C   UNL     1       6.916  13.951   4.551  0.00  0.00    +0.024 C 
ENDBRANCH  15  17
BRANCH  15  19
ATOM     19  C   UNL     1       6.615  13.926   7.781  0.00  0.00    +0.104 C 
ATOM     20  C   UNL     1       7.415  12.657   8.031  0.00  0.00    +0.024 C 
ENDBRANCH  15  19
ENDBRANCH   2  16
BRANCH  10  21
ATOM     21  O   UNL     1       5.145  16.788   5.598  0.00  0.00    -0.494 OA
ATOM     22  C   UNL     1       6.320  17.373   6.136  0.00  0.00    +0.277 C 
ENDBRANCH  10  21
BRANCH   1  23
ATOM     23  C   UNL     1      -0.887  16.821   5.647  0.00  0.00    +0.155 C 
BRANCH  23  25
ATOM     24  F   UNL     1      -1.097  16.473   3.345  0.00  0.00    -0.247 F 
ATOM     25  C   UNL     1      -1.494  17.305   4.347  0.00  0.00    +0.235 C 
ENDBRANCH  23  25
ENDBRANCH   1  23
TORSDOF 6
ENDMDL
