REMARK  Name = docking/18F-GE-180.pdb
REMARK  9 active torsions:
REMARK  status: ('A' for Active; 'I' for Inactive)
REMARK    1  A    between atoms: O_3  and  C_16
REMARK    2  A    between atoms: O_3  and  C_25
REMARK    3  A    between atoms: N_4  and  C_15
REMARK    4  A    between atoms: N_5  and  C_21
REMARK    5  A    between atoms: N_5  and  C_22
REMARK    6  A    between atoms: C_6  and  C_14
REMARK    7  A    between atoms: C_15  and  C_19
REMARK    8  A    between atoms: C_21  and  C_23
REMARK    9  A    between atoms: C_22  and  C_24
REMARK                            x       y       z     vdW  Elec       q    Type
REMARK                         _______ _______ _______ _____ _____    ______ ____
ROOT
ATOM      1  N   UNL     1       2.360  -2.261  -0.922  0.00  0.00    -0.341 N 
ATOM      2  C   UNL     1       2.233  -5.621  -2.431  0.00  0.00    +0.107 C 
ATOM      3  C   UNL     1       2.121  -4.147  -2.097  0.00  0.00    -0.004 A 
ATOM      4  C   UNL     1       2.498  -3.625  -0.872  0.00  0.00    +0.024 A 
ATOM      5  C   UNL     1       3.050  -6.368  -1.343  0.00  0.00    +0.018 C 
ATOM      6  C   UNL     1       3.041  -4.411   0.274  0.00  0.00    +0.054 C 
ATOM      7  C   UNL     1       2.716  -5.899   0.080  0.00  0.00    +0.007 C 
ATOM      8  C   UNL     1       1.606  -3.065  -2.881  0.00  0.00    +0.046 A 
ATOM      9  C   UNL     1       1.793  -1.894  -2.132  0.00  0.00    +0.053 A 
ATOM     10  C   UNL     1       1.017  -2.982  -4.172  0.00  0.00    +0.130 A 
ATOM     11  C   UNL     1       1.446  -0.632  -2.638  0.00  0.00    +0.026 A 
ATOM     12  C   UNL     1       0.690  -1.715  -4.675  0.00  0.00    +0.046 A 
ATOM     13  C   UNL     1       0.908  -0.564  -3.924  0.00  0.00    +0.006 A 
ENDROOT
BRANCH   2  16
ATOM     14  O   UNL     1       3.853  -5.152  -4.173  0.00  0.00    -0.275 OA
ATOM     15  N   UNL     1       2.526  -6.982  -4.543  0.00  0.00    -0.302 N 
ATOM     16  C   UNL     1       2.924  -5.872  -3.787  0.00  0.00    +0.223 C 
BRANCH  15  17
ATOM     17  C   UNL     1       1.564  -7.998  -4.117  0.00  0.00    +0.104 C 
ATOM     18  C   UNL     1       0.143  -7.681  -4.553  0.00  0.00    +0.024 C 
ENDBRANCH  15  17
BRANCH  15  19
ATOM     19  C   UNL     1       3.141  -7.158  -5.859  0.00  0.00    +0.104 C 
ATOM     20  C   UNL     1       4.411  -7.991  -5.786  0.00  0.00    +0.024 C 
ENDBRANCH  15  19
ENDBRANCH   2  16
BRANCH  10  21
ATOM     21  O   UNL     1       0.792  -4.162  -4.831  0.00  0.00    -0.494 OA
ATOM     22  C   UNL     1       0.286  -4.100  -6.155  0.00  0.00    +0.277 C 
ENDBRANCH  10  21
BRANCH   1  23
ATOM     23  C   UNL     1       2.830  -1.341   0.096  0.00  0.00    +0.155 C 
BRANCH  23  25
ATOM     24  F   UNL     1       2.383  -0.262   2.121  0.00  0.00    -0.247 F 
ATOM     25  C   UNL     1       1.809  -1.060   1.179  0.00  0.00    +0.235 C 
ENDBRANCH  23  25
ENDBRANCH   1  23
TORSDOF 6
