MODEL 1
REMARK VINA RESULT:    -6.228      0.000      0.000
REMARK INTER + INTRA:          -9.601
REMARK INTER:                  -8.413
REMARK INTRA:                  -1.188
REMARK UNBOUND:                -1.188
REMARK  Name = 6433109
REMARK  8 active torsions:
REMARK  status: ('A' for Active; 'I' for Inactive)
REMARK    1  A    between atoms: N_3  and  C_8
REMARK    2  A    between atoms: N_4  and  C_15
REMARK    3  A    between atoms: N_5  and  C_13
REMARK    4  A    between atoms: N_5  and  C_14
REMARK    5  A    between atoms: C_8  and  C_12
REMARK    6  A    between atoms: C_13  and  C_17
REMARK    7  A    between atoms: C_14  and  C_19
REMARK    8  A    between atoms: C_18  and  C_20
REMARK                            x       y       z     vdW  Elec       q    Type
REMARK                         _______ _______ _______ _____ _____    ______ ____
ROOT
ATOM      1  O   UNL     1      10.350  12.811   3.886  0.00  0.00    -0.246 OA
ATOM      2  N   UNL     1       8.010  13.199   3.790  0.00  0.00    -0.268 N 
ATOM      3  N   UNL     1       8.989  13.002   5.822  0.00  0.00    -0.292 N 
ATOM      4  N   UNL     1       5.703  13.564   4.593  0.00  0.00    -0.208 NA
ATOM      5  N   UNL     1       5.515  13.552   7.023  0.00  0.00    -0.233 NA
ATOM      6  C   UNL     1       7.011  13.346   4.769  0.00  0.00    +0.165 A 
ATOM      7  C   UNL     1       7.621  13.224   6.003  0.00  0.00    +0.107 A 
ATOM      8  C   UNL     1       9.266  12.981   4.426  0.00  0.00    +0.332 A 
ATOM      9  C   UNL     1       9.957  12.825   6.873  0.00  0.00    +0.154 C 
ATOM     10  C   UNL     1       6.844  13.332   7.122  0.00  0.00    +0.142 A 
ATOM     11  C   UNL     1       5.022  13.655   5.759  0.00  0.00    +0.162 A 
ENDROOT
BRANCH  11  12
ATOM     12  C   UNL     1       3.605  13.889   5.652  0.00  0.00    +0.019 A 
ATOM     13  C   UNL     1       3.087  15.172   5.848  0.00  0.00    +0.011 A 
ATOM     14  C   UNL     1       2.739  12.834   5.347  0.00  0.00    +0.011 A 
ATOM     15  C   UNL     1       1.715  15.399   5.741  0.00  0.00    +0.001 A 
ATOM     16  C   UNL     1       1.367  13.062   5.241  0.00  0.00    +0.001 A 
ATOM     17  C   UNL     1       0.854  14.344   5.438  0.00  0.00    +0.000 A 
ENDBRANCH  11  12
BRANCH   2  18
ATOM     18  C   UNL     1       7.751  13.265   2.375  0.00  0.00    +0.224 C 
BRANCH  18  21
ATOM     19  O   UNL     1       8.708  15.458   2.525  0.00  0.00    -0.274 OA
ATOM     20  N   UNL     1       7.497  14.975   0.606  0.00  0.00    -0.296 N 
ATOM     21  C   UNL     1       8.038  14.665   1.859  0.00  0.00    +0.236 C 
BRANCH  20  22
ATOM     22  C   UNL     1       6.708  14.019  -0.162  0.00  0.00    +0.105 C 
ATOM     23  C   UNL     1       7.127  13.995  -1.617  0.00  0.00    +0.024 C 
ENDBRANCH  20  22
BRANCH  20  24
ATOM     24  C   UNL     1       7.682  16.279  -0.024  0.00  0.00    +0.142 C 
BRANCH  24  25
ATOM     25  C   UNL     1       6.515  17.190   0.218  0.00  0.00    -0.030 A 
ATOM     26  C   UNL     1       6.480  17.972   1.368  0.00  0.00    +0.005 A 
ATOM     27  C   UNL     1       5.479  17.244  -0.707  0.00  0.00    +0.005 A 
ATOM     28  C   UNL     1       5.395  18.819   1.595  0.00  0.00    +0.000 A 
ATOM     29  C   UNL     1       4.394  18.091  -0.480  0.00  0.00    +0.000 A 
ATOM     30  C   UNL     1       4.351  18.878   0.671  0.00  0.00    +0.000 A 
ENDBRANCH  24  25
ENDBRANCH  20  24
ENDBRANCH  18  21
ENDBRANCH   2  18
TORSDOF 6
ENDMDL
