REMARK  Name = 10430788
REMARK  10 active torsions:
REMARK  status: ('A' for Active; 'I' for Inactive)
REMARK    1  A    between atoms: O_2  and  C_11
REMARK    2  A    between atoms: O_2  and  C_22
REMARK    3  A    between atoms: O_3  and  C_10
REMARK    4  A    between atoms: O_3  and  C_23
REMARK    5  A    between atoms: O_4  and  C_15
REMARK    6  A    between atoms: O_4  and  C_26
REMARK    7  A    between atoms: N_6  and  C_7
REMARK    8  A    between atoms: N_6  and  C_9
REMARK    9  A    between atoms: C_7  and  C_8
REMARK   10  A    between atoms: C_13  and  C_21
REMARK                            x       y       z     vdW  Elec       q    Type
REMARK                         _______ _______ _______ _____ _____    ______ ____
ROOT
ATOM      1  O   UNL     1       1.490  -0.735   2.653  0.00  0.00    -0.276 OA
ATOM      2  N   UNL     1       0.145   0.170   0.912  0.00  0.00    -0.264 N 
ATOM      3  C   UNL     1       0.638   0.058   2.245  0.00  0.00    +0.217 C 
ATOM      4  C   UNL     1       0.075   1.058   3.229  0.00  0.00    +0.109 C 
ENDROOT
BRANCH   2   6
ATOM      5  F   UNL     1      -1.312   4.544  -0.343  0.00  0.00    -0.205 F 
ATOM      6  C   UNL     1      -0.941   1.109   0.628  0.00  0.00    +0.082 A 
ATOM      7  C   UNL     1      -2.224   0.661   0.728  0.00  0.00    +0.150 A 
ATOM      8  C   UNL     1      -0.584   2.378   0.280  0.00  0.00    +0.065 A 
ATOM      9  C   UNL     1      -3.248   1.567   0.453  0.00  0.00    +0.051 A 
ATOM     10  C   UNL     1      -1.608   3.284   0.005  0.00  0.00    +0.125 A 
ATOM     11  C   UNL     1      -2.940   2.879   0.091  0.00  0.00    +0.042 A 
BRANCH   7  12
ATOM     12  O   UNL     1      -2.546  -0.616   1.077  0.00  0.00    -0.454 OA
BRANCH  12  13
ATOM     13  C   UNL     1      -3.273  -1.366   0.169  0.00  0.00    +0.129 A 
ATOM     14  C   UNL     1      -2.907  -1.350  -1.165  0.00  0.00    +0.046 A 
ATOM     15  C   UNL     1      -4.348  -2.113   0.618  0.00  0.00    +0.046 A 
ATOM     16  C   UNL     1      -3.640  -2.105  -2.080  0.00  0.00    +0.004 A 
ATOM     17  C   UNL     1      -5.081  -2.868  -0.297  0.00  0.00    +0.004 A 
ATOM     18  C   UNL     1      -4.727  -2.864  -1.647  0.00  0.00    +0.000 A 
ENDBRANCH  12  13
ENDBRANCH   7  12
ENDBRANCH   2   6
BRANCH   2  19
ATOM     19  C   UNL     1       0.602  -0.669  -0.165  0.00  0.00    +0.152 C 
BRANCH  19  20
ATOM     20  C   UNL     1       2.069  -0.531  -0.407  0.00  0.00    +0.015 A 
ATOM     21  C   UNL     1       2.558   0.421  -1.302  0.00  0.00    +0.125 A 
ATOM     22  C   UNL     1       2.954  -1.367   0.274  0.00  0.00    +0.054 A 
ATOM     23  C   UNL     1       4.327  -1.252   0.059  0.00  0.00    +0.121 A 
ATOM     24  C   UNL     1       3.931   0.536  -1.516  0.00  0.00    +0.049 A 
ATOM     25  C   UNL     1       4.816  -0.300  -0.836  0.00  0.00    +0.049 A 
BRANCH  21  26
ATOM     26  O   UNL     1       1.707   1.245  -1.976  0.00  0.00    -0.495 OA
ATOM     27  C   UNL     1       2.293   2.188  -2.871  0.00  0.00    +0.277 C 
ENDBRANCH  21  26
BRANCH  23  28
ATOM     28  O   UNL     1       5.191  -2.067   0.725  0.00  0.00    -0.495 OA
ATOM     29  C   UNL     1       6.582  -1.893   0.459  0.00  0.00    +0.277 C 
ENDBRANCH  23  28
ENDBRANCH  19  20
ENDBRANCH   2  19
TORSDOF 7
