REMARK  Name = 11595759
REMARK  11 active torsions:
REMARK  status: ('A' for Active; 'I' for Inactive)
REMARK    1  A    between atoms: O_2  and  C_26
REMARK    2  A    between atoms: O_2  and  C_27
REMARK    3  A    between atoms: N_4  and  C_14
REMARK    4  A    between atoms: N_4  and  C_15
REMARK    5  A    between atoms: C_7  and  C_8
REMARK    6  A    between atoms: C_8  and  C_11
REMARK    7  A    between atoms: C_10  and  C_13
REMARK    8  A    between atoms: C_12  and  C_18
REMARK    9  A    between atoms: C_14  and  C_21
REMARK   10  A    between atoms: C_15  and  C_22
REMARK   11  A    between atoms: C_16  and  C_23
REMARK                            x       y       z     vdW  Elec       q    Type
REMARK                         _______ _______ _______ _____ _____    ______ ____
ROOT
ATOM      1  N   UNL     1      -2.136   1.774  -0.101  0.00  0.00    -0.218 N 
ATOM      2  N   UNL     1      -0.867   2.225  -0.300  0.00  0.00    -0.164 NA
ATOM      3  N   UNL     1      -3.289  -0.221   0.602  0.00  0.00    -0.233 NA
ATOM      4  C   UNL     1      -0.815   0.063   0.410  0.00  0.00    +0.033 A 
ATOM      5  C   UNL     1      -2.134   0.448   0.336  0.00  0.00    +0.160 A 
ATOM      6  C   UNL     1      -0.088   1.190   0.010  0.00  0.00    +0.099 A 
ATOM      7  C   UNL     1      -3.337   2.475  -0.284  0.00  0.00    +0.044 A 
ATOM      8  C   UNL     1      -4.398   0.437   0.430  0.00  0.00    +0.042 A 
ATOM      9  C   UNL     1      -4.500   1.853  -0.033  0.00  0.00    +0.046 A 
ATOM     10  C   UNL     1      -3.277   3.897  -0.755  0.00  0.00    +0.066 C 
ATOM     11  C   UNL     1      -5.692  -0.282   0.721  0.00  0.00    +0.066 C 
ENDROOT
BRANCH   6  12
ATOM     12  C   UNL     1       1.345   1.312  -0.087  0.00  0.00    +0.003 A 
ATOM     13  C   UNL     1       1.988   0.993  -1.280  0.00  0.00    +0.013 A 
ATOM     14  C   UNL     1       2.078   1.749   1.013  0.00  0.00    +0.013 A 
ATOM     15  C   UNL     1       3.374   1.111  -1.373  0.00  0.00    +0.046 A 
ATOM     16  C   UNL     1       3.465   1.867   0.920  0.00  0.00    +0.046 A 
ATOM     17  C   UNL     1       4.113   1.548  -0.274  0.00  0.00    +0.120 A 
BRANCH  17  18
ATOM     18  O   UNL     1       5.466   1.665  -0.365  0.00  0.00    -0.495 OA
ATOM     19  C   UNL     1       6.159   2.117   0.797  0.00  0.00    +0.277 C 
ENDBRANCH  17  18
ENDBRANCH   6  12
BRANCH   4  20
ATOM     20  C   UNL     1      -0.298  -1.255   0.824  0.00  0.00    +0.137 C 
BRANCH  20  23
ATOM     21  O   UNL     1      -0.478  -1.908  -1.479  0.00  0.00    -0.275 OA
ATOM     22  N   UNL     1       0.404  -3.495  -0.038  0.00  0.00    -0.302 N 
ATOM     23  C   UNL     1      -0.137  -2.240  -0.340  0.00  0.00    +0.220 C 
BRANCH  22  24
ATOM     24  C   UNL     1       0.802  -3.870   1.313  0.00  0.00    +0.104 C 
ATOM     25  C   UNL     1       2.248  -3.513   1.585  0.00  0.00    +0.024 C 
ENDBRANCH  22  24
BRANCH  22  26
ATOM     26  C   UNL     1       0.611  -4.524  -1.054  0.00  0.00    +0.104 C 
ATOM     27  C   UNL     1      -0.606  -5.415  -1.197  0.00  0.00    +0.024 C 
ENDBRANCH  22  26
ENDBRANCH  20  23
ENDBRANCH   4  20
TORSDOF 6
