REMARK  Name = 11653141
REMARK  8 active torsions:
REMARK  status: ('A' for Active; 'I' for Inactive)
REMARK    1  A    between atoms: O_1  and  C_10
REMARK    2  A    between atoms: O_1  and  C_20
REMARK    3  A    between atoms: O_2  and  C_9
REMARK    4  A    between atoms: O_2  and  C_23
REMARK    5  A    between atoms: N_4  and  C_6
REMARK    6  A    between atoms: N_4  and  C_8
REMARK    7  A    between atoms: C_6  and  C_7
REMARK    8  A    between atoms: C_11  and  C_18
REMARK                            x       y       z     vdW  Elec       q    Type
REMARK                         _______ _______ _______ _____ _____    ______ ____
ROOT
ATOM      1  O   UNL     1      -1.160   2.261  -2.214  0.00  0.00    -0.276 OA
ATOM      2  N   UNL     1       0.616   1.199  -1.040  0.00  0.00    -0.263 N 
ATOM      3  C   UNL     1      -0.232   1.450  -2.158  0.00  0.00    +0.217 C 
ATOM      4  C   UNL     1       0.090   0.657  -3.404  0.00  0.00    +0.109 C 
ENDROOT
BRANCH   2   6
ATOM      5  N   UNL     1       0.650   2.113   2.520  0.00  0.00    -0.261 NA
ATOM      6  C   UNL     1       0.123   1.480   0.309  0.00  0.00    +0.097 A 
ATOM      7  C   UNL     1      -1.204   1.372   0.564  0.00  0.00    +0.153 A 
ATOM      8  C   UNL     1       1.025   1.838   1.251  0.00  0.00    +0.138 A 
ATOM      9  C   UNL     1      -1.628   1.647   1.859  0.00  0.00    +0.068 A 
ATOM     10  C   UNL     1      -0.670   2.011   2.792  0.00  0.00    +0.114 A 
BRANCH   7  11
ATOM     11  O   UNL     1      -2.123   1.012  -0.376  0.00  0.00    -0.454 OA
BRANCH  11  12
ATOM     12  C   UNL     1      -2.869  -0.130  -0.140  0.00  0.00    +0.129 A 
ATOM     13  C   UNL     1      -2.232  -1.270   0.317  0.00  0.00    +0.046 A 
ATOM     14  C   UNL     1      -4.233  -0.102  -0.368  0.00  0.00    +0.046 A 
ATOM     15  C   UNL     1      -2.984  -2.420   0.554  0.00  0.00    +0.004 A 
ATOM     16  C   UNL     1      -4.985  -1.253  -0.131  0.00  0.00    +0.004 A 
ATOM     17  C   UNL     1      -4.361  -2.412   0.330  0.00  0.00    +0.000 A 
ENDBRANCH  11  12
ENDBRANCH   7  11
ENDBRANCH   2   6
BRANCH   2  18
ATOM     18  C   UNL     1       1.983   0.764  -1.175  0.00  0.00    +0.152 C 
BRANCH  18  19
ATOM     19  C   UNL     1       2.224  -0.556  -0.522  0.00  0.00    +0.012 A 
ATOM     20  C   UNL     1       3.349  -0.763   0.276  0.00  0.00    +0.125 A 
ATOM     21  C   UNL     1       1.309  -1.591  -0.718  0.00  0.00    +0.009 A 
ATOM     22  C   UNL     1       3.559  -2.003   0.878  0.00  0.00    +0.046 A 
ATOM     23  C   UNL     1       1.519  -2.831  -0.116  0.00  0.00    +0.001 A 
ATOM     24  C   UNL     1       2.644  -3.038   0.682  0.00  0.00    +0.004 A 
BRANCH  20  25
ATOM     25  O   UNL     1       4.253   0.237   0.477  0.00  0.00    -0.495 OA
ATOM     26  C   UNL     1       5.336   0.327  -0.447  0.00  0.00    +0.277 C 
ENDBRANCH  20  25
ENDBRANCH  18  19
ENDBRANCH   2  18
TORSDOF 6
