MODEL 1
REMARK VINA RESULT:    -5.439      0.000      0.000
REMARK INTER + INTRA:          -9.063
REMARK INTER:                  -7.982
REMARK INTRA:                  -1.080
REMARK UNBOUND:                -1.080
REMARK  Name = 11696868
REMARK  10 active torsions:
REMARK  status: ('A' for Active; 'I' for Inactive)
REMARK    1  A    between atoms: O_2  and  C_11
REMARK    2  A    between atoms: O_2  and  C_22
REMARK    3  A    between atoms: O_3  and  C_10
REMARK    4  A    between atoms: O_3  and  C_23
REMARK    5  A    between atoms: O_4  and  C_15
REMARK    6  A    between atoms: O_4  and  C_26
REMARK    7  A    between atoms: N_6  and  C_7
REMARK    8  A    between atoms: N_6  and  C_9
REMARK    9  A    between atoms: C_7  and  C_8
REMARK   10  A    between atoms: C_13  and  C_20
REMARK                            x       y       z     vdW  Elec       q    Type
REMARK                         _______ _______ _______ _____ _____    ______ ____
ROOT
ATOM      1  O   UNL     1       7.833  16.100   4.206  0.00  0.00    -0.272 OA
ATOM      2  N   UNL     1       6.747  14.437   5.516  0.00  0.00    -0.262 N 
ATOM      3  C   UNL     1       7.348  15.707   5.271  0.00  0.00    +0.251 C 
ENDROOT
BRANCH   2   4
ATOM      4  C   UNL     1       6.227  14.159   6.855  0.00  0.00    +0.079 A 
ATOM      5  C   UNL     1       4.966  14.577   7.156  0.00  0.00    +0.150 A 
ATOM      6  C   UNL     1       7.052  13.492   7.711  0.00  0.00    +0.027 A 
ATOM      7  C   UNL     1       4.483  14.302   8.437  0.00  0.00    +0.048 A 
ATOM      8  C   UNL     1       6.570  13.218   8.990  0.00  0.00    +0.002 A 
ATOM      9  C   UNL     1       5.285  13.623   9.354  0.00  0.00    +0.004 A 
BRANCH   5  10
ATOM     10  O   UNL     1       4.167  15.243   6.276  0.00  0.00    -0.454 OA
BRANCH  10  11
ATOM     11  C   UNL     1       3.023  14.600   5.836  0.00  0.00    +0.129 A 
ATOM     12  C   UNL     1       3.056  13.235   5.617  0.00  0.00    +0.046 A 
ATOM     13  C   UNL     1       1.872  15.341   5.626  0.00  0.00    +0.046 A 
ATOM     14  C   UNL     1       1.903  12.588   5.172  0.00  0.00    +0.004 A 
ATOM     15  C   UNL     1       0.719  14.693   5.182  0.00  0.00    +0.004 A 
ATOM     16  C   UNL     1       0.734  13.318   4.955  0.00  0.00    +0.000 A 
ENDBRANCH  10  11
ENDBRANCH   5  10
ENDBRANCH   2   4
BRANCH   3  18
ATOM     17  F   UNL     1       8.582  16.430   7.160  0.00  0.00    -0.239 F 
ATOM     18  C   UNL     1       7.424  16.627   6.468  0.00  0.00    +0.309 C 
ENDBRANCH   3  18
BRANCH   2  19
ATOM     19  C   UNL     1       6.628  13.418   4.505  0.00  0.00    +0.152 C 
BRANCH  19  20
ATOM     20  C   UNL     1       7.949  13.050   3.915  0.00  0.00    +0.015 A 
ATOM     21  C   UNL     1       8.171  13.158   2.542  0.00  0.00    +0.125 A 
ATOM     22  C   UNL     1       8.966  12.594   4.753  0.00  0.00    +0.054 A 
ATOM     23  C   UNL     1      10.207  12.244   4.218  0.00  0.00    +0.121 A 
ATOM     24  C   UNL     1       9.412  12.809   2.007  0.00  0.00    +0.049 A 
ATOM     25  C   UNL     1      10.429  12.351   2.845  0.00  0.00    +0.049 A 
BRANCH  23  26
ATOM     26  O   UNL     1      11.200  11.801   5.035  0.00  0.00    -0.495 OA
ATOM     27  C   UNL     1      12.196  10.962   4.452  0.00  0.00    +0.277 C 
ENDBRANCH  23  26
BRANCH  21  28
ATOM     28  O   UNL     1       7.188  13.600   1.710  0.00  0.00    -0.495 OA
ATOM     29  C   UNL     1       7.573  14.503   0.675  0.00  0.00    +0.277 C 
ENDBRANCH  21  28
ENDBRANCH  19  20
ENDBRANCH   2  19
TORSDOF 8
ENDMDL
