REMARK  Name = 1345
REMARK  7 active torsions:
REMARK  status: ('A' for Active; 'I' for Inactive)
REMARK    1  A    between atoms: N_3  and  C_5
REMARK    2  A    between atoms: N_3  and  C_10
REMARK    3  A    between atoms: C_5  and  C_6
REMARK    4  A    between atoms: C_5  and  C_7
REMARK    5  A    between atoms: C_6  and  C_11
REMARK    6  A    between atoms: C_8  and  C_9
REMARK    7  A    between atoms: C_14  and  C_16
REMARK                            x       y       z     vdW  Elec       q    Type
REMARK                         _______ _______ _______ _____ _____    ______ ____
ROOT
ATOM      1  N   UNL     1       0.172  -0.327  -0.407  0.00  0.00    -0.241 NA
ATOM      2  C   UNL     1       1.048   0.701  -0.421  0.00  0.00    +0.127 A 
ATOM      3  C   UNL     1      -1.609   1.299  -0.088  0.00  0.00    +0.008 A 
ATOM      4  C   UNL     1      -0.664   2.345  -0.107  0.00  0.00    -0.014 A 
ATOM      5  C   UNL     1      -1.131  -0.004  -0.242  0.00  0.00    +0.081 A 
ATOM      6  C   UNL     1       0.690   2.033  -0.278  0.00  0.00    +0.041 A 
ATOM      7  C   UNL     1      -2.972   1.592   0.082  0.00  0.00    +0.010 A 
ATOM      8  C   UNL     1      -1.107   3.669   0.045  0.00  0.00    +0.008 A 
ATOM      9  C   UNL     1      -3.394   2.913   0.232  0.00  0.00    +0.001 A 
ATOM     10  C   UNL     1      -2.464   3.949   0.213  0.00  0.00    +0.001 A 
ENDROOT
BRANCH   5  12
ATOM     11 CL   UNL     1      -1.688  -1.360   2.472  0.00  0.00    -0.083 Cl
ATOM     12  C   UNL     1      -1.994  -1.168  -0.241  0.00  0.00    +0.019 A 
ATOM     13  C   UNL     1      -2.308  -1.852   0.935  0.00  0.00    +0.050 A 
ATOM     14  C   UNL     1      -2.518  -1.602  -1.459  0.00  0.00    +0.011 A 
ATOM     15  C   UNL     1      -3.144  -2.967   0.892  0.00  0.00    +0.020 A 
ATOM     16  C   UNL     1      -3.354  -2.718  -1.502  0.00  0.00    +0.001 A 
ATOM     17  C   UNL     1      -3.667  -3.401  -0.327  0.00  0.00    +0.001 A 
ENDBRANCH   5  12
BRANCH   2  20
ATOM     18  O   UNL     1       2.862   0.266  -1.763  0.00  0.00    -0.268 OA
ATOM     19  N   UNL     1       3.229   0.067   0.537  0.00  0.00    -0.297 N 
ATOM     20  C   UNL     1       2.442   0.335  -0.599  0.00  0.00    +0.265 C 
ATOM     21  C   UNL     1       2.695   0.160   1.889  0.00  0.00    +0.132 C 
BRANCH  19  22
ATOM     22  C   UNL     1       4.634  -0.322   0.437  0.00  0.00    +0.073 C 
ATOM     23  C   UNL     1       5.434   0.804  -0.209  0.00  0.00    +0.028 C 
BRANCH  22  24
ATOM     24  C   UNL     1       4.797  -1.629  -0.350  0.00  0.00    +0.019 C 
ATOM     25  C   UNL     1       4.014  -2.784   0.260  0.00  0.00    +0.005 C 
ENDBRANCH  22  24
ENDBRANCH  19  22
ENDBRANCH   2  20
TORSDOF 4
