REMARK SMILES CCN(Cc1cc(Cl)ccc1Cl)C(=O)Cn1c(=O)n(C)c2cnc(-c3ccccc3)nc21
REMARK SMILES IDX 13 1 14 2 3 3 2 4 1 5 4 6 5 7 6 8 11 9 7 10 10 11 9 12 12 13
REMARK SMILES IDX 8 14 15 15 16 16 17 17 32 18 18 19 19 20 21 21 31 22 22 23
REMARK SMILES IDX 24 24 23 25 20 26 25 27 26 28 30 29 27 30 29 31 28 32
REMARK H PARENT
ROOT
ATOM      1  C   UNL     1      -1.112  -1.174   0.171  1.00  0.00     0.243 C 
ATOM      2  O   UNL     1      -0.749  -1.365   1.335  1.00  0.00    -0.273 OA
ENDROOT
BRANCH   1   3
ATOM      3  N   UNL     1      -2.223  -0.371  -0.128  1.00  0.00    -0.337 N 
BRANCH   3   4
ATOM      4  C   UNL     1      -2.940  -0.469  -1.406  1.00  0.00     0.116 C 
ATOM      5  C   UNL     1      -3.975  -1.584  -1.404  1.00  0.00     0.027 C 
ENDBRANCH   3   4
BRANCH   3   6
ATOM      6  C   UNL     1      -2.912   0.232   1.017  1.00  0.00     0.156 C 
BRANCH   6   7
ATOM      7  C   UNL     1      -3.528   1.584   0.737  1.00  0.00    -0.008 A 
ATOM      8  C   UNL     1      -4.930   1.701   0.689  1.00  0.00     0.027 A 
ATOM      9  C   UNL     1      -2.752   2.736   0.523  1.00  0.00     0.046 A 
ATOM     10  C   UNL     1      -5.533   2.932   0.428  1.00  0.00     0.041 A 
ATOM     11  C   UNL     1      -3.365   3.968   0.264  1.00  0.00     0.022 A 
ATOM     12  C   UNL     1      -4.756   4.067   0.216  1.00  0.00     0.022 A 
ATOM     13  Cl  UNL     1      -1.026   2.699   0.562  1.00  0.00    -0.084 Cl
ATOM     14  Cl  UNL     1      -7.248   3.047   0.367  1.00  0.00    -0.084 Cl
ENDBRANCH   6   7
ENDBRANCH   3   6
ENDBRANCH   1   3
BRANCH   1  15
ATOM     15  C   UNL     1      -0.368  -1.801  -1.019  1.00  0.00     0.229 C 
BRANCH  15  16
ATOM     16  N   UNL     1       0.822  -2.487  -0.595  1.00  0.00    -0.267 N 
ATOM     17  C   UNL     1       0.901  -3.838  -0.224  1.00  0.00     0.330 A 
ATOM     18  C   UNL     1       2.000  -1.835  -0.219  1.00  0.00     0.165 A 
ATOM     19  O   UNL     1       0.028  -4.682  -0.347  1.00  0.00    -0.248 OA
ATOM     20  N   UNL     1       2.192  -4.023   0.316  1.00  0.00    -0.292 N 
ATOM     21  C   UNL     1       2.834  -2.783   0.330  1.00  0.00     0.107 A 
ATOM     22  N   UNL     1       2.277  -0.539  -0.356  1.00  0.00    -0.208 NA
ATOM     23  C   UNL     1       4.044  -2.355   0.772  1.00  0.00     0.144 A 
ATOM     24  C   UNL     1       3.494  -0.190   0.116  1.00  0.00     0.161 A 
ATOM     25  N   UNL     1       4.397  -1.054   0.667  1.00  0.00    -0.234 NA
ATOM     26  C   UNL     1       2.704  -5.233   0.888  1.00  0.00     0.155 C 
BRANCH  24  27
ATOM     27  C   UNL     1       3.879   1.235   0.025  1.00  0.00     0.019 A 
ATOM     28  C   UNL     1       5.174   1.672   0.368  1.00  0.00     0.012 A 
ATOM     29  C   UNL     1       2.966   2.217  -0.405  1.00  0.00     0.012 A 
ATOM     30  C   UNL     1       5.537   3.021   0.284  1.00  0.00     0.001 A 
ATOM     31  C   UNL     1       3.324   3.566  -0.488  1.00  0.00     0.001 A 
ATOM     32  C   UNL     1       4.612   3.967  -0.144  1.00  0.00     0.000 A 
ENDBRANCH  24  27
ENDBRANCH  15  16
ENDBRANCH   1  15
TORSDOF 7
