MODEL 1
REMARK VINA RESULT:    -5.386      0.000      0.000
REMARK INTER + INTRA:         -10.416
REMARK INTER:                  -7.590
REMARK INTRA:                  -2.827
REMARK UNBOUND:                -2.827
REMARK SMILES CCN(Cc1cc(Cl)ccc1Cl)C(=O)Cn1c(=O)n(C)c2cnc(-c3ccccc3)nc21
REMARK SMILES IDX 13 1 14 2 3 3 2 4 1 5 4 6 5 7 6 8 11 9 7 10 10 11 9 12 12 13
REMARK SMILES IDX 8 14 15 15 16 16 17 17 32 18 18 19 19 20 21 21 31 22 22 23
REMARK SMILES IDX 24 24 23 25 20 26 25 27 26 28 30 29 27 30 29 31 28 32
REMARK H PARENT
ROOT
ATOM      1  C   UNL     1       0.638  18.445   7.071  1.00  0.00     0.243 C 
ATOM      2  O   UNL     1      -0.353  19.042   7.500  1.00  0.00    -0.273 OA
ENDROOT
BRANCH   1   3
ATOM      3  N   UNL     1       0.671  17.916   5.772  1.00  0.00    -0.337 N 
BRANCH   3   4
ATOM      4  C   UNL     1       1.877  17.965   4.936  1.00  0.00     0.116 C 
ATOM      5  C   UNL     1       1.927  19.212   4.066  1.00  0.00     0.027 C 
ENDBRANCH   3   4
BRANCH   3   6
ATOM      6  C   UNL     1      -0.366  16.931   5.449  1.00  0.00     0.156 C 
BRANCH   6   7
ATOM      7  C   UNL     1      -0.121  15.553   6.019  1.00  0.00    -0.008 A 
ATOM      8  C   UNL     1       0.787  14.695   5.371  1.00  0.00     0.027 A 
ATOM      9  C   UNL     1      -0.767  15.091   7.179  1.00  0.00     0.046 A 
ATOM     10  C   UNL     1       1.034  13.414   5.866  1.00  0.00     0.041 A 
ATOM     11  C   UNL     1      -0.512  13.805   7.671  1.00  0.00     0.022 A 
ATOM     12  C   UNL     1       0.388  12.965   7.014  1.00  0.00     0.022 A 
ATOM     13  Cl  UNL     1      -1.898  16.065   8.048  1.00  0.00    -0.084 Cl
ATOM     14  Cl  UNL     1       2.143  12.383   5.051  1.00  0.00    -0.084 Cl
ENDBRANCH   6   7
ENDBRANCH   3   6
ENDBRANCH   1   3
BRANCH   1  15
ATOM     15  C   UNL     1       1.896  18.249   7.933  1.00  0.00     0.229 C 
BRANCH  15  16
ATOM     16  N   UNL     1       1.884  16.977   8.602  1.00  0.00    -0.267 N 
ATOM     17  C   UNL     1       1.243  16.697   9.819  1.00  0.00     0.330 A 
ATOM     18  C   UNL     1       2.745  15.924   8.280  1.00  0.00     0.165 A 
ATOM     19  O   UNL     1       0.472  17.424  10.423  1.00  0.00    -0.248 OA
ATOM     20  N   UNL     1       1.668  15.405  10.199  1.00  0.00    -0.292 N 
ATOM     21  C   UNL     1       2.601  14.965   9.258  1.00  0.00     0.107 A 
ATOM     22  N   UNL     1       3.562  15.849   7.230  1.00  0.00    -0.208 NA
ATOM     23  C   UNL     1       3.362  13.847   9.139  1.00  0.00     0.144 A 
ATOM     24  C   UNL     1       4.291  14.712   7.188  1.00  0.00     0.161 A 
ATOM     25  N   UNL     1       4.214  13.699   8.100  1.00  0.00    -0.234 NA
ATOM     26  C   UNL     1       1.323  14.724  11.412  1.00  0.00     0.155 C 
BRANCH  24  27
ATOM     27  C   UNL     1       5.242  14.552   6.066  1.00  0.00     0.019 A 
ATOM     28  C   UNL     1       5.802  15.666   5.410  1.00  0.00     0.012 A 
ATOM     29  C   UNL     1       5.625  13.279   5.604  1.00  0.00     0.012 A 
ATOM     30  C   UNL     1       6.700  15.514   4.348  1.00  0.00     0.001 A 
ATOM     31  C   UNL     1       6.520  13.122   4.541  1.00  0.00     0.001 A 
ATOM     32  C   UNL     1       7.058  14.242   3.914  1.00  0.00     0.000 A 
ENDBRANCH  24  27
ENDBRANCH  15  16
ENDBRANCH   1  15
TORSDOF 7
ENDMDL
MODEL 2
REMARK VINA RESULT:    -5.232      4.384      7.901
REMARK INTER + INTRA:         -10.199
REMARK INTER:                  -7.548
REMARK INTRA:                  -2.651
REMARK UNBOUND:                -2.827
REMARK SMILES CCN(Cc1cc(Cl)ccc1Cl)C(=O)Cn1c(=O)n(C)c2cnc(-c3ccccc3)nc21
REMARK SMILES IDX 13 1 14 2 3 3 2 4 1 5 4 6 5 7 6 8 11 9 7 10 10 11 9 12 12 13
REMARK SMILES IDX 8 14 15 15 16 16 17 17 32 18 18 19 19 20 21 21 31 22 22 23
REMARK SMILES IDX 24 24 23 25 20 26 25 27 26 28 30 29 27 30 29 31 28 32
REMARK H PARENT
ROOT
ATOM      1  C   UNL     1       7.950  13.366   2.657  1.00  0.00     0.243 C 
ATOM      2  O   UNL     1       7.083  13.542   1.796  1.00  0.00    -0.273 OA
ENDROOT
BRANCH   1   3
ATOM      3  N   UNL     1       9.110  14.153   2.700  1.00  0.00    -0.337 N 
BRANCH   3   4
ATOM      4  C   UNL     1      10.430  13.625   2.328  1.00  0.00     0.116 C 
ATOM      5  C   UNL     1      11.151  14.521   1.333  1.00  0.00     0.027 C 
ENDBRANCH   3   4
BRANCH   3   6
ATOM      6  C   UNL     1       8.908  15.605   2.687  1.00  0.00     0.156 C 
BRANCH   6   7
ATOM      7  C   UNL     1       8.320  16.168   3.961  1.00  0.00    -0.008 A 
ATOM      8  C   UNL     1       6.969  16.562   3.976  1.00  0.00     0.027 A 
ATOM      9  C   UNL     1       9.072  16.312   5.140  1.00  0.00     0.046 A 
ATOM     10  C   UNL     1       6.393  17.090   5.132  1.00  0.00     0.041 A 
ATOM     11  C   UNL     1       8.487  16.840   6.297  1.00  0.00     0.022 A 
ATOM     12  C   UNL     1       7.147  17.230   6.294  1.00  0.00     0.022 A 
ATOM     13  Cl  UNL     1      10.736  15.857   5.226  1.00  0.00    -0.084 Cl
ATOM     14  Cl  UNL     1       4.742  17.571   5.122  1.00  0.00    -0.084 Cl
ENDBRANCH   6   7
ENDBRANCH   3   6
ENDBRANCH   1   3
BRANCH   1  15
ATOM     15  C   UNL     1       7.807  12.279   3.735  1.00  0.00     0.229 C 
BRANCH  15  16
ATOM     16  N   UNL     1       7.858  12.839   5.058  1.00  0.00    -0.267 N 
ATOM     17  C   UNL     1       8.959  12.788   5.927  1.00  0.00     0.330 A 
ATOM     18  C   UNL     1       6.728  13.255   5.767  1.00  0.00     0.165 A 
ATOM     19  O   UNL     1      10.087  12.410   5.656  1.00  0.00    -0.248 OA
ATOM     20  N   UNL     1       8.498  13.264   7.174  1.00  0.00    -0.292 N 
ATOM     21  C   UNL     1       7.130  13.520   7.057  1.00  0.00     0.107 A 
ATOM     22  N   UNL     1       5.487  13.375   5.298  1.00  0.00    -0.208 NA
ATOM     23  C   UNL     1       6.174  13.938   7.926  1.00  0.00     0.144 A 
ATOM     24  C   UNL     1       4.592  13.785   6.224  1.00  0.00     0.161 A 
ATOM     25  N   UNL     1       4.892  14.083   7.523  1.00  0.00    -0.234 NA
ATOM     26  C   UNL     1       9.259  13.332   8.386  1.00  0.00     0.155 C 
BRANCH  24  27
ATOM     27  C   UNL     1       3.183  13.926   5.798  1.00  0.00     0.019 A 
ATOM     28  C   UNL     1       2.421  12.811   5.394  1.00  0.00     0.012 A 
ATOM     29  C   UNL     1       2.545  15.180   5.773  1.00  0.00     0.012 A 
ATOM     30  C   UNL     1       1.088  12.945   4.988  1.00  0.00     0.001 A 
ATOM     31  C   UNL     1       1.214  15.319   5.366  1.00  0.00     0.001 A 
ATOM     32  C   UNL     1       0.486  14.199   4.974  1.00  0.00     0.000 A 
ENDBRANCH  24  27
ENDBRANCH  15  16
ENDBRANCH   1  15
TORSDOF 7
ENDMDL
MODEL 3
REMARK VINA RESULT:    -5.086      3.085      5.876
REMARK INTER + INTRA:          -9.994
REMARK INTER:                  -7.382
REMARK INTRA:                  -2.612
REMARK UNBOUND:                -2.827
REMARK SMILES CCN(Cc1cc(Cl)ccc1Cl)C(=O)Cn1c(=O)n(C)c2cnc(-c3ccccc3)nc21
REMARK SMILES IDX 13 1 14 2 3 3 2 4 1 5 4 6 5 7 6 8 11 9 7 10 10 11 9 12 12 13
REMARK SMILES IDX 8 14 15 15 16 16 17 17 32 18 18 19 19 20 21 21 31 22 22 23
REMARK SMILES IDX 24 24 23 25 20 26 25 27 26 28 30 29 27 30 29 31 28 32
REMARK H PARENT
ROOT
ATOM      1  C   UNL     1       4.625  13.193  10.742  1.00  0.00     0.243 C 
ATOM      2  O   UNL     1       4.750  11.982  10.944  1.00  0.00    -0.273 OA
ENDROOT
BRANCH   1   3
ATOM      3  N   UNL     1       3.403  13.849  10.951  1.00  0.00    -0.337 N 
BRANCH   3   4
ATOM      4  C   UNL     1       2.567  13.594  12.131  1.00  0.00     0.116 C 
ATOM      5  C   UNL     1       2.557  14.770  13.096  1.00  0.00     0.027 C 
ENDBRANCH   3   4
BRANCH   3   6
ATOM      6  C   UNL     1       3.204  15.098  10.209  1.00  0.00     0.156 C 
BRANCH   6   7
ATOM      7  C   UNL     1       1.845  15.233   9.561  1.00  0.00    -0.008 A 
ATOM      8  C   UNL     1       1.254  14.102   8.966  1.00  0.00     0.027 A 
ATOM      9  C   UNL     1       1.143  16.450   9.529  1.00  0.00     0.046 A 
ATOM     10  C   UNL     1       0.003  14.191   8.355  1.00  0.00     0.041 A 
ATOM     11  C   UNL     1      -0.113  16.530   8.915  1.00  0.00     0.022 A 
ATOM     12  C   UNL     1      -0.684  15.401   8.327  1.00  0.00     0.022 A 
ATOM     13  Cl  UNL     1       1.779  17.894  10.230  1.00  0.00    -0.084 Cl
ATOM     14  Cl  UNL     1      -0.693  12.796   7.629  1.00  0.00    -0.084 Cl
ENDBRANCH   6   7
ENDBRANCH   3   6
ENDBRANCH   1   3
BRANCH   1  15
ATOM     15  C   UNL     1       5.801  14.055  10.255  1.00  0.00     0.229 C 
BRANCH  15  16
ATOM     16  N   UNL     1       6.423  13.488   9.090  1.00  0.00    -0.267 N 
ATOM     17  C   UNL     1       7.767  13.098   8.986  1.00  0.00     0.330 A 
ATOM     18  C   UNL     1       5.850  13.514   7.815  1.00  0.00     0.165 A 
ATOM     19  O   UNL     1       8.580  13.026   9.894  1.00  0.00    -0.248 OA
ATOM     20  N   UNL     1       7.988  12.803   7.623  1.00  0.00    -0.292 N 
ATOM     21  C   UNL     1       6.811  13.087   6.926  1.00  0.00     0.107 A 
ATOM     22  N   UNL     1       4.609  13.884   7.502  1.00  0.00    -0.208 NA
ATOM     23  C   UNL     1       6.460  13.043   5.616  1.00  0.00     0.144 A 
ATOM     24  C   UNL     1       4.340  13.822   6.179  1.00  0.00     0.161 A 
ATOM     25  N   UNL     1       5.218  13.403   5.221  1.00  0.00    -0.234 NA
ATOM     26  C   UNL     1       9.236  12.423   7.031  1.00  0.00     0.155 C 
BRANCH  24  27
ATOM     27  C   UNL     1       2.991  14.236   5.737  1.00  0.00     0.019 A 
ATOM     28  C   UNL     1       2.051  13.298   5.264  1.00  0.00     0.012 A 
ATOM     29  C   UNL     1       2.589  15.585   5.766  1.00  0.00     0.012 A 
ATOM     30  C   UNL     1       0.775  13.691   4.843  1.00  0.00     0.001 A 
ATOM     31  C   UNL     1       1.317  15.981   5.344  1.00  0.00     0.001 A 
ATOM     32  C   UNL     1       0.409  15.032   4.883  1.00  0.00     0.000 A 
ENDBRANCH  24  27
ENDBRANCH  15  16
ENDBRANCH   1  15
TORSDOF 7
ENDMDL
MODEL 4
REMARK VINA RESULT:    -5.020      3.391      5.451
REMARK INTER + INTRA:          -9.900
REMARK INTER:                  -8.362
REMARK INTRA:                  -1.538
REMARK UNBOUND:                -2.827
REMARK SMILES CCN(Cc1cc(Cl)ccc1Cl)C(=O)Cn1c(=O)n(C)c2cnc(-c3ccccc3)nc21
REMARK SMILES IDX 13 1 14 2 3 3 2 4 1 5 4 6 5 7 6 8 11 9 7 10 10 11 9 12 12 13
REMARK SMILES IDX 8 14 15 15 16 16 17 17 32 18 18 19 19 20 21 21 31 22 22 23
REMARK SMILES IDX 24 24 23 25 20 26 25 27 26 28 30 29 27 30 29 31 28 32
REMARK H PARENT
ROOT
ATOM      1  C   UNL     1       5.013  14.381   8.182  1.00  0.00     0.243 C 
ATOM      2  O   UNL     1       4.042  13.864   8.741  1.00  0.00    -0.273 OA
ENDROOT
BRANCH   1   3
ATOM      3  N   UNL     1       4.882  15.054   6.958  1.00  0.00    -0.337 N 
BRANCH   3   4
ATOM      4  C   UNL     1       5.753  16.176   6.583  1.00  0.00     0.116 C 
ATOM      5  C   UNL     1       6.208  16.095   5.133  1.00  0.00     0.027 C 
ENDBRANCH   3   4
BRANCH   3   6
ATOM      6  C   UNL     1       4.172  14.334   5.897  1.00  0.00     0.156 C 
BRANCH   6   7
ATOM      7  C   UNL     1       2.762  14.818   5.646  1.00  0.00    -0.008 A 
ATOM      8  C   UNL     1       2.474  16.189   5.784  1.00  0.00     0.027 A 
ATOM      9  C   UNL     1       1.721  13.949   5.277  1.00  0.00     0.046 A 
ATOM     10  C   UNL     1       1.182  16.670   5.566  1.00  0.00     0.041 A 
ATOM     11  C   UNL     1       0.428  14.440   5.057  1.00  0.00     0.022 A 
ATOM     12  C   UNL     1       0.158  15.801   5.202  1.00  0.00     0.022 A 
ATOM     13  Cl  UNL     1       1.971  12.251   5.080  1.00  0.00    -0.084 Cl
ATOM     14  Cl  UNL     1       0.854  18.349   5.749  1.00  0.00    -0.084 Cl
ENDBRANCH   6   7
ENDBRANCH   3   6
ENDBRANCH   1   3
BRANCH   1  15
ATOM     15  C   UNL     1       6.422  14.322   8.794  1.00  0.00     0.229 C 
BRANCH  15  16
ATOM     16  N   UNL     1       6.946  12.983   8.784  1.00  0.00    -0.267 N 
ATOM     17  C   UNL     1       7.175  12.184   9.914  1.00  0.00     0.330 A 
ATOM     18  C   UNL     1       7.566  12.402   7.674  1.00  0.00     0.165 A 
ATOM     19  O   UNL     1       6.828  12.422  11.060  1.00  0.00    -0.248 OA
ATOM     20  N   UNL     1       7.882  11.051   9.459  1.00  0.00    -0.292 N 
ATOM     21  C   UNL     1       8.130  11.218   8.094  1.00  0.00     0.107 A 
ATOM     22  N   UNL     1       7.616  12.892   6.436  1.00  0.00    -0.208 NA
ATOM     23  C   UNL     1       8.796  10.490   7.163  1.00  0.00     0.144 A 
ATOM     24  C   UNL     1       8.303  12.116   5.571  1.00  0.00     0.161 A 
ATOM     25  N   UNL     1       8.889  10.922   5.885  1.00  0.00    -0.234 NA
ATOM     26  C   UNL     1       8.391   9.987  10.273  1.00  0.00     0.155 C 
BRANCH  24  27
ATOM     27  C   UNL     1       8.428  12.592   4.176  1.00  0.00     0.019 A 
ATOM     28  C   UNL     1       7.324  13.113   3.473  1.00  0.00     0.012 A 
ATOM     29  C   UNL     1       9.657  12.542   3.490  1.00  0.00     0.012 A 
ATOM     30  C   UNL     1       7.442  13.562   2.153  1.00  0.00     0.001 A 
ATOM     31  C   UNL     1       9.779  12.987   2.170  1.00  0.00     0.001 A 
ATOM     32  C   UNL     1       8.669  13.499   1.502  1.00  0.00     0.000 A 
ENDBRANCH  24  27
ENDBRANCH  15  16
ENDBRANCH   1  15
TORSDOF 7
ENDMDL
MODEL 5
REMARK VINA RESULT:    -4.926      2.954      5.633
REMARK INTER + INTRA:          -9.769
REMARK INTER:                  -6.788
REMARK INTRA:                  -2.981
REMARK UNBOUND:                -2.827
REMARK SMILES CCN(Cc1cc(Cl)ccc1Cl)C(=O)Cn1c(=O)n(C)c2cnc(-c3ccccc3)nc21
REMARK SMILES IDX 13 1 14 2 3 3 2 4 1 5 4 6 5 7 6 8 11 9 7 10 10 11 9 12 12 13
REMARK SMILES IDX 8 14 15 15 16 16 17 17 32 18 18 19 19 20 21 21 31 22 22 23
REMARK SMILES IDX 24 24 23 25 20 26 25 27 26 28 30 29 27 30 29 31 28 32
REMARK H PARENT
ROOT
ATOM      1  C   UNL     1       3.290  14.611  12.154  1.00  0.00     0.243 C 
ATOM      2  O   UNL     1       3.857  15.557  12.707  1.00  0.00    -0.273 OA
ENDROOT
BRANCH   1   3
ATOM      3  N   UNL     1       3.929  13.851  11.162  1.00  0.00    -0.337 N 
BRANCH   3   4
ATOM      4  C   UNL     1       3.325  12.641  10.590  1.00  0.00     0.116 C 
ATOM      5  C   UNL     1       3.862  11.369  11.229  1.00  0.00     0.027 C 
ENDBRANCH   3   4
BRANCH   3   6
ATOM      6  C   UNL     1       4.984  14.532  10.405  1.00  0.00     0.156 C 
BRANCH   6   7
ATOM      7  C   UNL     1       4.611  14.877   8.981  1.00  0.00    -0.008 A 
ATOM      8  C   UNL     1       4.959  13.988   7.948  1.00  0.00     0.027 A 
ATOM      9  C   UNL     1       3.924  16.057   8.647  1.00  0.00     0.046 A 
ATOM     10  C   UNL     1       4.635  14.276   6.621  1.00  0.00     0.041 A 
ATOM     11  C   UNL     1       3.601  16.337   7.314  1.00  0.00     0.022 A 
ATOM     12  C   UNL     1       3.956  15.447   6.300  1.00  0.00     0.022 A 
ATOM     13  Cl  UNL     1       3.450  17.212   9.840  1.00  0.00    -0.084 Cl
ATOM     14  Cl  UNL     1       5.079  13.176   5.375  1.00  0.00    -0.084 Cl
ENDBRANCH   6   7
ENDBRANCH   3   6
ENDBRANCH   1   3
BRANCH   1  15
ATOM     15  C   UNL     1       1.852  14.207  12.519  1.00  0.00     0.229 C 
BRANCH  15  16
ATOM     16  N   UNL     1       0.906  15.217  12.130  1.00  0.00    -0.267 N 
ATOM     17  C   UNL     1       0.148  16.010  13.006  1.00  0.00     0.330 A 
ATOM     18  C   UNL     1       0.400  15.347  10.834  1.00  0.00     0.165 A 
ATOM     19  O   UNL     1       0.276  16.088  14.217  1.00  0.00    -0.248 OA
ATOM     20  N   UNL     1      -0.787  16.699  12.203  1.00  0.00    -0.292 N 
ATOM     21  C   UNL     1      -0.629  16.260  10.887  1.00  0.00     0.107 A 
ATOM     22  N   UNL     1       0.821  14.710   9.742  1.00  0.00    -0.208 NA
ATOM     23  C   UNL     1      -1.271  16.531   9.722  1.00  0.00     0.144 A 
ATOM     24  C   UNL     1       0.127  15.026   8.626  1.00  0.00     0.161 A 
ATOM     25  N   UNL     1      -0.900  15.925   8.572  1.00  0.00    -0.234 NA
ATOM     26  C   UNL     1      -1.816  17.579  12.671  1.00  0.00     0.155 C 
BRANCH  24  27
ATOM     27  C   UNL     1       0.512  14.350   7.368  1.00  0.00     0.019 A 
ATOM     28  C   UNL     1       1.084  13.063   7.368  1.00  0.00     0.012 A 
ATOM     29  C   UNL     1       0.326  14.967   6.116  1.00  0.00     0.012 A 
ATOM     30  C   UNL     1       1.450  12.425   6.178  1.00  0.00     0.001 A 
ATOM     31  C   UNL     1       0.693  14.334   4.925  1.00  0.00     0.001 A 
ATOM     32  C   UNL     1       1.254  13.061   4.957  1.00  0.00     0.000 A 
ENDBRANCH  24  27
ENDBRANCH  15  16
ENDBRANCH   1  15
TORSDOF 7
ENDMDL
MODEL 6
REMARK VINA RESULT:    -4.905      4.791      8.218
REMARK INTER + INTRA:          -9.738
REMARK INTER:                  -8.058
REMARK INTRA:                  -1.680
REMARK UNBOUND:                -2.827
REMARK SMILES CCN(Cc1cc(Cl)ccc1Cl)C(=O)Cn1c(=O)n(C)c2cnc(-c3ccccc3)nc21
REMARK SMILES IDX 13 1 14 2 3 3 2 4 1 5 4 6 5 7 6 8 11 9 7 10 10 11 9 12 12 13
REMARK SMILES IDX 8 14 15 15 16 16 17 17 32 18 18 19 19 20 21 21 31 22 22 23
REMARK SMILES IDX 24 24 23 25 20 26 25 27 26 28 30 29 27 30 29 31 28 32
REMARK H PARENT
ROOT
ATOM      1  C   UNL     1       8.444  13.203   4.067  1.00  0.00     0.243 C 
ATOM      2  O   UNL     1       7.528  12.381   3.980  1.00  0.00    -0.273 OA
ENDROOT
BRANCH   1   3
ATOM      3  N   UNL     1       9.749  12.815   4.406  1.00  0.00    -0.337 N 
BRANCH   3   4
ATOM      4  C   UNL     1      10.884  13.001   3.493  1.00  0.00     0.116 C 
ATOM      5  C   UNL     1      10.616  12.425   2.111  1.00  0.00     0.027 C 
ENDBRANCH   3   4
BRANCH   3   6
ATOM      6  C   UNL     1      10.022  12.640   5.836  1.00  0.00     0.156 C 
BRANCH   6   7
ATOM      7  C   UNL     1       9.652  11.280   6.383  1.00  0.00    -0.008 A 
ATOM      8  C   UNL     1      10.501  10.186   6.131  1.00  0.00     0.027 A 
ATOM      9  C   UNL     1       8.487  11.064   7.139  1.00  0.00     0.046 A 
ATOM     10  C   UNL     1      10.189   8.916   6.616  1.00  0.00     0.041 A 
ATOM     11  C   UNL     1       8.182   9.786   7.625  1.00  0.00     0.022 A 
ATOM     12  C   UNL     1       9.033   8.711   7.363  1.00  0.00     0.022 A 
ATOM     13  Cl  UNL     1       7.381  12.338   7.505  1.00  0.00    -0.084 Cl
ATOM     14  Cl  UNL     1      11.239   7.594   6.287  1.00  0.00    -0.084 Cl
ENDBRANCH   6   7
ENDBRANCH   3   6
ENDBRANCH   1   3
BRANCH   1  15
ATOM     15  C   UNL     1       8.211  14.700   3.808  1.00  0.00     0.229 C 
BRANCH  15  16
ATOM     16  N   UNL     1       7.989  15.419   5.033  1.00  0.00    -0.267 N 
ATOM     17  C   UNL     1       8.987  15.966   5.855  1.00  0.00     0.330 A 
ATOM     18  C   UNL     1       6.772  15.423   5.720  1.00  0.00     0.165 A 
ATOM     19  O   UNL     1      10.176  16.062   5.596  1.00  0.00    -0.248 OA
ATOM     20  N   UNL     1       8.338  16.384   7.037  1.00  0.00    -0.292 N 
ATOM     21  C   UNL     1       6.993  16.021   6.941  1.00  0.00     0.107 A 
ATOM     22  N   UNL     1       5.608  14.938   5.290  1.00  0.00    -0.208 NA
ATOM     23  C   UNL     1       5.929  16.122   7.778  1.00  0.00     0.144 A 
ATOM     24  C   UNL     1       4.601  15.067   6.183  1.00  0.00     0.161 A 
ATOM     25  N   UNL     1       4.715  15.653   7.411  1.00  0.00    -0.234 NA
ATOM     26  C   UNL     1       8.969  16.946   8.194  1.00  0.00     0.155 C 
BRANCH  24  27
ATOM     27  C   UNL     1       3.275  14.536   5.798  1.00  0.00     0.019 A 
ATOM     28  C   UNL     1       2.158  15.382   5.649  1.00  0.00     0.012 A 
ATOM     29  C   UNL     1       3.072  13.162   5.568  1.00  0.00     0.012 A 
ATOM     30  C   UNL     1       0.903  14.880   5.288  1.00  0.00     0.001 A 
ATOM     31  C   UNL     1       1.819  12.656   5.209  1.00  0.00     0.001 A 
ATOM     32  C   UNL     1       0.734  13.517   5.068  1.00  0.00     0.000 A 
ENDBRANCH  24  27
ENDBRANCH  15  16
ENDBRANCH   1  15
TORSDOF 7
ENDMDL
MODEL 7
REMARK VINA RESULT:    -4.891      1.789      4.889
REMARK INTER + INTRA:          -9.719
REMARK INTER:                  -6.854
REMARK INTRA:                  -2.865
REMARK UNBOUND:                -2.827
REMARK SMILES CCN(Cc1cc(Cl)ccc1Cl)C(=O)Cn1c(=O)n(C)c2cnc(-c3ccccc3)nc21
REMARK SMILES IDX 13 1 14 2 3 3 2 4 1 5 4 6 5 7 6 8 11 9 7 10 10 11 9 12 12 13
REMARK SMILES IDX 8 14 15 15 16 16 17 17 32 18 18 19 19 20 21 21 31 22 22 23
REMARK SMILES IDX 24 24 23 25 20 26 25 27 26 28 30 29 27 30 29 31 28 32
REMARK H PARENT
ROOT
ATOM      1  C   UNL     1       2.218  18.181   5.854  1.00  0.00     0.243 C 
ATOM      2  O   UNL     1       2.492  18.299   4.656  1.00  0.00    -0.273 OA
ENDROOT
BRANCH   1   3
ATOM      3  N   UNL     1       0.888  18.145   6.301  1.00  0.00    -0.337 N 
BRANCH   3   4
ATOM      4  C   UNL     1       0.303  19.222   7.109  1.00  0.00     0.116 C 
ATOM      5  C   UNL     1       0.412  18.950   8.602  1.00  0.00     0.027 C 
ENDBRANCH   3   4
BRANCH   3   6
ATOM      6  C   UNL     1      -0.013  17.244   5.575  1.00  0.00     0.156 C 
BRANCH   6   7
ATOM      7  C   UNL     1      -0.004  15.816   6.070  1.00  0.00    -0.008 A 
ATOM      8  C   UNL     1       0.850  14.882   5.451  1.00  0.00     0.027 A 
ATOM      9  C   UNL     1      -0.816  15.380   7.130  1.00  0.00     0.046 A 
ATOM     10  C   UNL     1       0.881  13.554   5.878  1.00  0.00     0.041 A 
ATOM     11  C   UNL     1      -0.777  14.045   7.554  1.00  0.00     0.022 A 
ATOM     12  C   UNL     1       0.071  13.132   6.928  1.00  0.00     0.022 A 
ATOM     13  Cl  UNL     1      -1.896  16.445   7.956  1.00  0.00    -0.084 Cl
ATOM     14  Cl  UNL     1       1.927  12.432   5.100  1.00  0.00    -0.084 Cl
ENDBRANCH   6   7
ENDBRANCH   3   6
ENDBRANCH   1   3
BRANCH   1  15
ATOM     15  C   UNL     1       3.314  18.066   6.925  1.00  0.00     0.229 C 
BRANCH  15  16
ATOM     16  N   UNL     1       3.789  16.715   7.049  1.00  0.00    -0.267 N 
ATOM     17  C   UNL     1       4.588  16.038   6.115  1.00  0.00     0.330 A 
ATOM     18  C   UNL     1       3.285  15.798   7.976  1.00  0.00     0.165 A 
ATOM     19  O   UNL     1       5.135  16.519   5.136  1.00  0.00    -0.248 OA
ATOM     20  N   UNL     1       4.632  14.691   6.537  1.00  0.00    -0.292 N 
ATOM     21  C   UNL     1       3.812  14.566   7.660  1.00  0.00     0.107 A 
ATOM     22  N   UNL     1       2.449  16.053   8.981  1.00  0.00    -0.208 NA
ATOM     23  C   UNL     1       3.441  13.520   8.442  1.00  0.00     0.144 A 
ATOM     24  C   UNL     1       2.120  14.961   9.706  1.00  0.00     0.161 A 
ATOM     25  N   UNL     1       2.594  13.700   9.481  1.00  0.00    -0.234 NA
ATOM     26  C   UNL     1       5.280  13.612   5.853  1.00  0.00     0.155 C 
BRANCH  24  27
ATOM     27  C   UNL     1       1.177  15.146  10.830  1.00  0.00     0.019 A 
ATOM     28  C   UNL     1       0.063  16.002  10.725  1.00  0.00     0.012 A 
ATOM     29  C   UNL     1       1.355  14.476  12.056  1.00  0.00     0.012 A 
ATOM     30  C   UNL     1      -0.827  16.179  11.791  1.00  0.00     0.001 A 
ATOM     31  C   UNL     1       0.469  14.651  13.124  1.00  0.00     0.001 A 
ATOM     32  C   UNL     1      -0.624  15.503  12.989  1.00  0.00     0.000 A 
ENDBRANCH  24  27
ENDBRANCH  15  16
ENDBRANCH   1  15
TORSDOF 7
ENDMDL
MODEL 8
REMARK VINA RESULT:    -4.820      3.233      5.488
REMARK INTER + INTRA:          -9.619
REMARK INTER:                  -7.939
REMARK INTRA:                  -1.680
REMARK UNBOUND:                -2.827
REMARK SMILES CCN(Cc1cc(Cl)ccc1Cl)C(=O)Cn1c(=O)n(C)c2cnc(-c3ccccc3)nc21
REMARK SMILES IDX 13 1 14 2 3 3 2 4 1 5 4 6 5 7 6 8 11 9 7 10 10 11 9 12 12 13
REMARK SMILES IDX 8 14 15 15 16 16 17 17 32 18 18 19 19 20 21 21 31 22 22 23
REMARK SMILES IDX 24 24 23 25 20 26 25 27 26 28 30 29 27 30 29 31 28 32
REMARK H PARENT
ROOT
ATOM      1  C   UNL     1       5.262  14.343   9.047  1.00  0.00     0.243 C 
ATOM      2  O   UNL     1       4.737  13.967  10.099  1.00  0.00    -0.273 OA
ENDROOT
BRANCH   1   3
ATOM      3  N   UNL     1       4.494  14.798   7.965  1.00  0.00    -0.337 N 
BRANCH   3   4
ATOM      4  C   UNL     1       4.756  16.082   7.302  1.00  0.00     0.116 C 
ATOM      5  C   UNL     1       4.493  16.023   5.804  1.00  0.00     0.027 C 
ENDBRANCH   3   4
BRANCH   3   6
ATOM      6  C   UNL     1       3.732  13.777   7.239  1.00  0.00     0.156 C 
BRANCH   6   7
ATOM      7  C   UNL     1       2.233  13.873   7.412  1.00  0.00    -0.008 A 
ATOM      8  C   UNL     1       1.715  14.553   8.530  1.00  0.00     0.027 A 
ATOM      9  C   UNL     1       1.331  13.306   6.495  1.00  0.00     0.046 A 
ATOM     10  C   UNL     1       0.337  14.657   8.724  1.00  0.00     0.041 A 
ATOM     11  C   UNL     1      -0.050  13.417   6.696  1.00  0.00     0.022 A 
ATOM     12  C   UNL     1      -0.549  14.092   7.811  1.00  0.00     0.022 A 
ATOM     13  Cl  UNL     1       1.865  12.452   5.092  1.00  0.00    -0.084 Cl
ATOM     14  Cl  UNL     1      -0.271  15.487  10.102  1.00  0.00    -0.084 Cl
ENDBRANCH   6   7
ENDBRANCH   3   6
ENDBRANCH   1   3
BRANCH   1  15
ATOM     15  C   UNL     1       6.788  14.339   8.862  1.00  0.00     0.229 C 
BRANCH  15  16
ATOM     16  N   UNL     1       7.260  13.063   8.398  1.00  0.00    -0.267 N 
ATOM     17  C   UNL     1       7.719  12.014   9.209  1.00  0.00     0.330 A 
ATOM     18  C   UNL     1       7.596  12.798   7.067  1.00  0.00     0.165 A 
ATOM     19  O   UNL     1       7.649  11.947  10.426  1.00  0.00    -0.248 OA
ATOM     20  N   UNL     1       8.273  11.054   8.335  1.00  0.00    -0.292 N 
ATOM     21  C   UNL     1       8.208  11.565   7.038  1.00  0.00     0.107 A 
ATOM     22  N   UNL     1       7.375  13.583   6.013  1.00  0.00    -0.208 NA
ATOM     23  C   UNL     1       8.624  11.114   5.827  1.00  0.00     0.144 A 
ATOM     24  C   UNL     1       7.826  13.070   4.848  1.00  0.00     0.161 A 
ATOM     25  N   UNL     1       8.435  11.855   4.712  1.00  0.00    -0.234 NA
ATOM     26  C   UNL     1       8.925   9.837   8.720  1.00  0.00     0.155 C 
BRANCH  24  27
ATOM     27  C   UNL     1       7.643  13.884   3.627  1.00  0.00     0.019 A 
ATOM     28  C   UNL     1       7.420  15.274   3.694  1.00  0.00     0.012 A 
ATOM     29  C   UNL     1       7.679  13.304   2.344  1.00  0.00     0.012 A 
ATOM     30  C   UNL     1       7.245  16.043   2.538  1.00  0.00     0.001 A 
ATOM     31  C   UNL     1       7.502  14.068   1.187  1.00  0.00     0.001 A 
ATOM     32  C   UNL     1       7.286  15.440   1.286  1.00  0.00     0.000 A 
ENDBRANCH  24  27
ENDBRANCH  15  16
ENDBRANCH   1  15
TORSDOF 7
ENDMDL
MODEL 9
REMARK VINA RESULT:    -4.732      4.723      7.268
REMARK INTER + INTRA:          -9.494
REMARK INTER:                  -8.212
REMARK INTRA:                  -1.282
REMARK UNBOUND:                -2.827
REMARK SMILES CCN(Cc1cc(Cl)ccc1Cl)C(=O)Cn1c(=O)n(C)c2cnc(-c3ccccc3)nc21
REMARK SMILES IDX 13 1 14 2 3 3 2 4 1 5 4 6 5 7 6 8 11 9 7 10 10 11 9 12 12 13
REMARK SMILES IDX 8 14 15 15 16 16 17 17 32 18 18 19 19 20 21 21 31 22 22 23
REMARK SMILES IDX 24 24 23 25 20 26 25 27 26 28 30 29 27 30 29 31 28 32
REMARK H PARENT
ROOT
ATOM      1  C   UNL     1       5.826  13.941   7.103  1.00  0.00     0.243 C 
ATOM      2  O   UNL     1       6.687  14.182   7.954  1.00  0.00    -0.273 OA
ENDROOT
BRANCH   1   3
ATOM      3  N   UNL     1       4.581  14.588   7.116  1.00  0.00    -0.337 N 
BRANCH   3   4
ATOM      4  C   UNL     1       3.871  14.896   8.364  1.00  0.00     0.116 C 
ATOM      5  C   UNL     1       3.090  13.702   8.894  1.00  0.00     0.027 C 
ENDBRANCH   3   4
BRANCH   3   6
ATOM      6  C   UNL     1       4.230  15.338   5.906  1.00  0.00     0.156 C 
BRANCH   6   7
ATOM      7  C   UNL     1       2.744  15.465   5.657  1.00  0.00    -0.008 A 
ATOM      8  C   UNL     1       2.147  16.739   5.711  1.00  0.00     0.027 A 
ATOM      9  C   UNL     1       1.930  14.356   5.371  1.00  0.00     0.046 A 
ATOM     10  C   UNL     1       0.778  16.893   5.491  1.00  0.00     0.041 A 
ATOM     11  C   UNL     1       0.557  14.520   5.149  1.00  0.00     0.022 A 
ATOM     12  C   UNL     1      -0.020  15.789   5.210  1.00  0.00     0.022 A 
ATOM     13  Cl  UNL     1       2.564  12.752   5.281  1.00  0.00    -0.084 Cl
ATOM     14  Cl  UNL     1       0.072  18.460   5.569  1.00  0.00    -0.084 Cl
ENDBRANCH   6   7
ENDBRANCH   3   6
ENDBRANCH   1   3
BRANCH   1  15
ATOM     15  C   UNL     1       6.068  12.922   5.978  1.00  0.00     0.229 C 
BRANCH  15  16
ATOM     16  N   UNL     1       7.468  12.784   5.682  1.00  0.00    -0.267 N 
ATOM     17  C   UNL     1       8.152  13.431   4.642  1.00  0.00     0.330 A 
ATOM     18  C   UNL     1       8.275  11.772   6.208  1.00  0.00     0.165 A 
ATOM     19  O   UNL     1       7.722  14.321   3.926  1.00  0.00    -0.248 OA
ATOM     20  N   UNL     1       9.436  12.846   4.593  1.00  0.00    -0.292 N 
ATOM     21  C   UNL     1       9.479  11.822   5.541  1.00  0.00     0.107 A 
ATOM     22  N   UNL     1       7.954  10.909   7.171  1.00  0.00    -0.208 NA
ATOM     23  C   UNL     1      10.418  10.908   5.897  1.00  0.00     0.144 A 
ATOM     24  C   UNL     1       8.935  10.027   7.461  1.00  0.00     0.161 A 
ATOM     25  N   UNL     1      10.164  10.000   6.867  1.00  0.00    -0.234 NA
ATOM     26  C   UNL     1      10.466  13.145   3.642  1.00  0.00     0.155 C 
BRANCH  24  27
ATOM     27  C   UNL     1       8.658   9.016   8.505  1.00  0.00     0.019 A 
ATOM     28  C   UNL     1       9.657   8.130   8.956  1.00  0.00     0.012 A 
ATOM     29  C   UNL     1       7.383   8.894   9.089  1.00  0.00     0.012 A 
ATOM     30  C   UNL     1       9.393   7.172   9.942  1.00  0.00     0.001 A 
ATOM     31  C   UNL     1       7.116   7.937  10.073  1.00  0.00     0.001 A 
ATOM     32  C   UNL     1       8.123   7.076  10.500  1.00  0.00     0.000 A 
ENDBRANCH  24  27
ENDBRANCH  15  16
ENDBRANCH   1  15
TORSDOF 7
ENDMDL
MODEL 10
REMARK VINA RESULT:    -4.674      5.203      7.632
REMARK INTER + INTRA:          -9.413
REMARK INTER:                  -8.094
REMARK INTRA:                  -1.319
REMARK UNBOUND:                -2.827
REMARK SMILES CCN(Cc1cc(Cl)ccc1Cl)C(=O)Cn1c(=O)n(C)c2cnc(-c3ccccc3)nc21
REMARK SMILES IDX 13 1 14 2 3 3 2 4 1 5 4 6 5 7 6 8 11 9 7 10 10 11 9 12 12 13
REMARK SMILES IDX 8 14 15 15 16 16 17 17 32 18 18 19 19 20 21 21 31 22 22 23
REMARK SMILES IDX 24 24 23 25 20 26 25 27 26 28 30 29 27 30 29 31 28 32
REMARK H PARENT
ROOT
ATOM      1  C   UNL     1       6.792  13.952   7.388  1.00  0.00     0.243 C 
ATOM      2  O   UNL     1       7.804  14.228   8.040  1.00  0.00    -0.273 OA
ENDROOT
BRANCH   1   3
ATOM      3  N   UNL     1       5.592  14.657   7.564  1.00  0.00    -0.337 N 
BRANCH   3   4
ATOM      4  C   UNL     1       5.035  14.937   8.894  1.00  0.00     0.116 C 
ATOM      5  C   UNL     1       4.098  13.838   9.371  1.00  0.00     0.027 C 
ENDBRANCH   3   4
BRANCH   3   6
ATOM      6  C   UNL     1       5.155  15.482   6.434  1.00  0.00     0.156 C 
BRANCH   6   7
ATOM      7  C   UNL     1       3.722  15.255   6.008  1.00  0.00    -0.008 A 
ATOM      8  C   UNL     1       3.295  13.946   5.715  1.00  0.00     0.027 A 
ATOM      9  C   UNL     1       2.794  16.304   5.895  1.00  0.00     0.046 A 
ATOM     10  C   UNL     1       1.981  13.699   5.314  1.00  0.00     0.041 A 
ATOM     11  C   UNL     1       1.477  16.047   5.495  1.00  0.00     0.022 A 
ATOM     12  C   UNL     1       1.070  14.745   5.203  1.00  0.00     0.022 A 
ATOM     13  Cl  UNL     1       3.218  17.943   6.234  1.00  0.00    -0.084 Cl
ATOM     14  Cl  UNL     1       1.486  12.092   4.953  1.00  0.00    -0.084 Cl
ENDBRANCH   6   7
ENDBRANCH   3   6
ENDBRANCH   1   3
BRANCH   1  15
ATOM     15  C   UNL     1       6.788  12.824   6.344  1.00  0.00     0.229 C 
BRANCH  15  16
ATOM     16  N   UNL     1       8.123  12.390   6.030  1.00  0.00    -0.267 N 
ATOM     17  C   UNL     1       8.904  12.853   4.961  1.00  0.00     0.330 A 
ATOM     18  C   UNL     1       8.713  11.246   6.573  1.00  0.00     0.165 A 
ATOM     19  O   UNL     1       8.653  13.795   4.226  1.00  0.00    -0.248 OA
ATOM     20  N   UNL     1      10.037  12.013   4.909  1.00  0.00    -0.292 N 
ATOM     21  C   UNL     1       9.887  11.027   5.886  1.00  0.00     0.107 A 
ATOM     22  N   UNL     1       8.240  10.494   7.565  1.00  0.00    -0.208 NA
ATOM     23  C   UNL     1      10.622   9.948   6.254  1.00  0.00     0.144 A 
ATOM     24  C   UNL     1       9.023   9.434   7.866  1.00  0.00     0.161 A 
ATOM     25  N   UNL     1      10.207   9.137   7.253  1.00  0.00    -0.234 NA
ATOM     26  C   UNL     1      11.086  12.067   3.933  1.00  0.00     0.155 C 
BRANCH  24  27
ATOM     27  C   UNL     1       8.565   8.530   8.943  1.00  0.00     0.019 A 
ATOM     28  C   UNL     1       7.256   8.604   9.461  1.00  0.00     0.012 A 
ATOM     29  C   UNL     1       9.418   7.559   9.500  1.00  0.00     0.012 A 
ATOM     30  C   UNL     1       6.824   7.750  10.482  1.00  0.00     0.001 A 
ATOM     31  C   UNL     1       8.991   6.705  10.522  1.00  0.00     0.001 A 
ATOM     32  C   UNL     1       7.692   6.801  11.011  1.00  0.00     0.000 A 
ENDBRANCH  24  27
ENDBRANCH  15  16
ENDBRANCH   1  15
TORSDOF 7
ENDMDL
