MODEL 1
REMARK VINA RESULT:    -5.321      0.000      0.000
REMARK INTER + INTRA:          -9.039
REMARK INTER:                  -7.498
REMARK INTRA:                  -1.541
REMARK UNBOUND:                -1.541
REMARK  Name = 10430788
REMARK  10 active torsions:
REMARK  status: ('A' for Active; 'I' for Inactive)
REMARK    1  A    between atoms: O_2  and  C_11
REMARK    2  A    between atoms: O_2  and  C_22
REMARK    3  A    between atoms: O_3  and  C_10
REMARK    4  A    between atoms: O_3  and  C_23
REMARK    5  A    between atoms: O_4  and  C_15
REMARK    6  A    between atoms: O_4  and  C_26
REMARK    7  A    between atoms: N_6  and  C_7
REMARK    8  A    between atoms: N_6  and  C_9
REMARK    9  A    between atoms: C_7  and  C_8
REMARK   10  A    between atoms: C_13  and  C_21
REMARK                            x       y       z     vdW  Elec       q    Type
REMARK                         _______ _______ _______ _____ _____    ______ ____
ROOT
ATOM      1  O   UNL     1       3.312  18.457   7.118  0.00  0.00    -0.276 OA
ATOM      2  N   UNL     1       1.692  16.941   6.261  0.00  0.00    -0.264 N 
ATOM      3  C   UNL     1       2.722  17.375   7.147  0.00  0.00    +0.217 C 
ATOM      4  C   UNL     1       3.073  16.408   8.254  0.00  0.00    +0.109 C 
ENDROOT
BRANCH   2   6
ATOM      5  F   UNL     1       1.535  12.418   4.727  0.00  0.00    -0.205 F 
ATOM      6  C   UNL     1       1.169  15.580   6.386  0.00  0.00    +0.082 A 
ATOM      7  C   UNL     1       0.280  15.319   7.385  0.00  0.00    +0.150 A 
ATOM      8  C   UNL     1       1.616  14.662   5.482  0.00  0.00    +0.065 A 
ATOM      9  C   UNL     1      -0.209  14.017   7.493  0.00  0.00    +0.051 A 
ATOM     10  C   UNL     1       1.127  13.360   5.589  0.00  0.00    +0.125 A 
ATOM     11  C   UNL     1       0.215  13.037   6.594  0.00  0.00    +0.042 A 
BRANCH   7  12
ATOM     12  O   UNL     1      -0.145  16.261   8.274  0.00  0.00    -0.454 OA
BRANCH  12  13
ATOM     13  C   UNL     1      -1.507  16.367   8.496  0.00  0.00    +0.129 A 
ATOM     14  C   UNL     1      -1.956  17.025   9.626  0.00  0.00    +0.046 A 
ATOM     15  C   UNL     1      -2.385  15.811   7.582  0.00  0.00    +0.046 A 
ATOM     16  C   UNL     1      -3.329  17.131   9.851  0.00  0.00    +0.004 A 
ATOM     17  C   UNL     1      -3.757  15.917   7.806  0.00  0.00    +0.004 A 
ATOM     18  C   UNL     1      -4.229  16.577   8.941  0.00  0.00    +0.000 A 
ENDBRANCH  12  13
ENDBRANCH   7  12
ENDBRANCH   2   6
BRANCH   2  19
ATOM     19  C   UNL     1       1.199  17.749   5.177  0.00  0.00    +0.152 C 
BRANCH  19  20
ATOM     20  C   UNL     1      -0.222  18.161   5.379  0.00  0.00    +0.015 A 
ATOM     21  C   UNL     1      -0.554  19.148   6.308  0.00  0.00    +0.125 A 
ATOM     22  C   UNL     1      -1.223  17.548   4.626  0.00  0.00    +0.054 A 
ATOM     23  C   UNL     1      -2.556  17.920   4.803  0.00  0.00    +0.121 A 
ATOM     24  C   UNL     1      -1.886  19.521   6.484  0.00  0.00    +0.049 A 
ATOM     25  C   UNL     1      -2.887  18.907   5.732  0.00  0.00    +0.049 A 
BRANCH  21  26
ATOM     26  O   UNL     1       0.413  19.757   7.052  0.00  0.00    -0.495 OA
ATOM     27  C   UNL     1       0.178  19.864   8.454  0.00  0.00    +0.277 C 
ENDBRANCH  21  26
BRANCH  23  28
ATOM     28  O   UNL     1      -3.533  17.323   4.067  0.00  0.00    -0.495 OA
ATOM     29  C   UNL     1      -4.835  17.904   4.124  0.00  0.00    +0.277 C 
ENDBRANCH  23  28
ENDBRANCH  19  20
ENDBRANCH   2  19
TORSDOF 7
ENDMDL
