MODEL 1
REMARK VINA RESULT:    -5.190      0.000      0.000
REMARK INTER + INTRA:          -8.743
REMARK INTER:                  -7.010
REMARK INTRA:                  -1.732
REMARK UNBOUND:                -1.732
REMARK  Name = 11595759
REMARK  11 active torsions:
REMARK  status: ('A' for Active; 'I' for Inactive)
REMARK    1  A    between atoms: O_2  and  C_26
REMARK    2  A    between atoms: O_2  and  C_27
REMARK    3  A    between atoms: N_4  and  C_14
REMARK    4  A    between atoms: N_4  and  C_15
REMARK    5  A    between atoms: C_7  and  C_8
REMARK    6  A    between atoms: C_8  and  C_11
REMARK    7  A    between atoms: C_10  and  C_13
REMARK    8  A    between atoms: C_12  and  C_18
REMARK    9  A    between atoms: C_14  and  C_21
REMARK   10  A    between atoms: C_15  and  C_22
REMARK   11  A    between atoms: C_16  and  C_23
REMARK                            x       y       z     vdW  Elec       q    Type
REMARK                         _______ _______ _______ _____ _____    ______ ____
ROOT
ATOM      1  N   UNL     1      -1.370  16.556   6.008  0.00  0.00    -0.218 N 
ATOM      2  N   UNL     1      -0.194  16.175   5.437  0.00  0.00    -0.164 NA
ATOM      3  N   UNL     1      -2.643  16.183   8.019  0.00  0.00    -0.233 NA
ATOM      4  C   UNL     1      -0.427  15.171   7.467  0.00  0.00    +0.033 A 
ATOM      5  C   UNL     1      -1.539  15.954   7.256  0.00  0.00    +0.160 A 
ATOM      6  C   UNL     1       0.358  15.347   6.322  0.00  0.00    +0.099 A 
ATOM      7  C   UNL     1      -2.338  17.427   5.486  0.00  0.00    +0.044 A 
ATOM      8  C   UNL     1      -3.535  16.993   7.528  0.00  0.00    +0.042 A 
ATOM      9  C   UNL     1      -3.442  17.681   6.206  0.00  0.00    +0.046 A 
ATOM     10  C   UNL     1      -2.102  18.044   4.140  0.00  0.00    +0.066 C 
ATOM     11  C   UNL     1      -4.766  17.265   8.355  0.00  0.00    +0.066 C 
ENDROOT
BRANCH   6  12
ATOM     12  C   UNL     1       1.637  14.742   6.042  0.00  0.00    +0.003 A 
ATOM     13  C   UNL     1       2.806  15.469   6.245  0.00  0.00    +0.013 A 
ATOM     14  C   UNL     1       1.694  13.433   5.571  0.00  0.00    +0.013 A 
ATOM     15  C   UNL     1       4.042  14.883   5.974  0.00  0.00    +0.046 A 
ATOM     16  C   UNL     1       2.930  12.847   5.299  0.00  0.00    +0.046 A 
ATOM     17  C   UNL     1       4.105  13.573   5.502  0.00  0.00    +0.120 A 
BRANCH  17  18
ATOM     18  O   UNL     1       5.311  13.000   5.239  0.00  0.00    -0.495 OA
ATOM     19  C   UNL     1       6.362  13.240   6.173  0.00  0.00    +0.277 C 
ENDBRANCH  17  18
ENDBRANCH   6  12
BRANCH   4  20
ATOM     20  C   UNL     1      -0.142  14.336   8.648  0.00  0.00    +0.137 C 
BRANCH  20  23
ATOM     21  O   UNL     1       0.121  16.044  10.314  0.00  0.00    -0.275 OA
ATOM     22  N   UNL     1       1.912  14.597  10.050  0.00  0.00    -0.302 N 
ATOM     23  C   UNL     1       0.633  15.076   9.745  0.00  0.00    +0.220 C 
BRANCH  22  24
ATOM     24  C   UNL     1       2.501  13.450   9.369  0.00  0.00    +0.104 C 
ATOM     25  C   UNL     1       4.013  13.522   9.368  0.00  0.00    +0.024 C 
ENDBRANCH  22  24
BRANCH  22  26
ATOM     26  C   UNL     1       2.755  15.209  11.075  0.00  0.00    +0.104 C 
ATOM     27  C   UNL     1       2.468  14.633  12.446  0.00  0.00    +0.024 C 
ENDBRANCH  22  26
ENDBRANCH  20  23
ENDBRANCH   4  20
TORSDOF 6
ENDMDL
