MODEL 1
REMARK VINA RESULT:    -5.685      0.000      0.000
REMARK INTER + INTRA:          -8.508
REMARK INTER:                  -7.679
REMARK INTRA:                  -0.829
REMARK UNBOUND:                -0.829
REMARK  Name = 11653141
REMARK  8 active torsions:
REMARK  status: ('A' for Active; 'I' for Inactive)
REMARK    1  A    between atoms: O_1  and  C_10
REMARK    2  A    between atoms: O_1  and  C_20
REMARK    3  A    between atoms: O_2  and  C_9
REMARK    4  A    between atoms: O_2  and  C_23
REMARK    5  A    between atoms: N_4  and  C_6
REMARK    6  A    between atoms: N_4  and  C_8
REMARK    7  A    between atoms: C_6  and  C_7
REMARK    8  A    between atoms: C_11  and  C_18
REMARK                            x       y       z     vdW  Elec       q    Type
REMARK                         _______ _______ _______ _____ _____    ______ ____
ROOT
ATOM      1  O   UNL     1       7.820  16.568   5.856  0.00  0.00    -0.276 OA
ATOM      2  N   UNL     1       6.668  14.557   5.320  0.00  0.00    -0.263 N 
ATOM      3  C   UNL     1       7.241  15.834   5.051  0.00  0.00    +0.217 C 
ATOM      4  C   UNL     1       7.156  16.290   3.612  0.00  0.00    +0.109 C 
ENDROOT
BRANCH   2   6
ATOM      5  N   UNL     1       6.745  13.223   8.744  0.00  0.00    -0.261 NA
ATOM      6  C   UNL     1       6.228  14.242   6.680  0.00  0.00    +0.097 A 
ATOM      7  C   UNL     1       5.001  14.647   7.089  0.00  0.00    +0.153 A 
ATOM      8  C   UNL     1       7.077  13.553   7.476  0.00  0.00    +0.138 A 
ATOM      9  C   UNL     1       4.624  14.326   8.388  0.00  0.00    +0.068 A 
ATOM     10  C   UNL     1       5.525  13.620   9.169  0.00  0.00    +0.114 A 
BRANCH   7  11
ATOM     11  O   UNL     1       4.136  15.342   6.296  0.00  0.00    -0.454 OA
BRANCH  11  12
ATOM     12  C   UNL     1       3.002  14.684   5.853  0.00  0.00    +0.129 A 
ATOM     13  C   UNL     1       3.056  13.319   5.634  0.00  0.00    +0.046 A 
ATOM     14  C   UNL     1       1.843  15.408   5.640  0.00  0.00    +0.046 A 
ATOM     15  C   UNL     1       1.913  12.656   5.187  0.00  0.00    +0.004 A 
ATOM     16  C   UNL     1       0.700  14.745   5.193  0.00  0.00    +0.004 A 
ATOM     17  C   UNL     1       0.734  13.370   4.966  0.00  0.00    +0.000 A 
ENDBRANCH  11  12
ENDBRANCH   7  11
ENDBRANCH   2   6
BRANCH   2  18
ATOM     18  C   UNL     1       6.580  13.512   4.331  0.00  0.00    +0.152 C 
BRANCH  18  19
ATOM     19  C   UNL     1       7.917  13.137   3.785  0.00  0.00    +0.012 A 
ATOM     20  C   UNL     1       8.163  13.171   2.412  0.00  0.00    +0.125 A 
ATOM     21  C   UNL     1       8.928  12.747   4.664  0.00  0.00    +0.009 A 
ATOM     22  C   UNL     1       9.418  12.817   1.919  0.00  0.00    +0.046 A 
ATOM     23  C   UNL     1      10.183  12.392   4.170  0.00  0.00    +0.001 A 
ATOM     24  C   UNL     1      10.429  12.426   2.798  0.00  0.00    +0.004 A 
BRANCH  20  25
ATOM     25  O   UNL     1       7.186  13.549   1.540  0.00  0.00    -0.495 OA
ATOM     26  C   UNL     1       7.587  14.334   0.418  0.00  0.00    +0.277 C 
ENDBRANCH  20  25
ENDBRANCH  18  19
ENDBRANCH   2  18
TORSDOF 6
ENDMDL
