REMARK  Name = 11696868
REMARK  10 active torsions:
REMARK  status: ('A' for Active; 'I' for Inactive)
REMARK    1  A    between atoms: O_2  and  C_11
REMARK    2  A    between atoms: O_2  and  C_22
REMARK    3  A    between atoms: O_3  and  C_10
REMARK    4  A    between atoms: O_3  and  C_23
REMARK    5  A    between atoms: O_4  and  C_15
REMARK    6  A    between atoms: O_4  and  C_26
REMARK    7  A    between atoms: N_6  and  C_7
REMARK    8  A    between atoms: N_6  and  C_9
REMARK    9  A    between atoms: C_7  and  C_8
REMARK   10  A    between atoms: C_13  and  C_20
REMARK                            x       y       z     vdW  Elec       q    Type
REMARK                         _______ _______ _______ _____ _____    ______ ____
ROOT
ATOM      1  O   UNL     1       1.161   2.539  -1.942  0.00  0.00    -0.272 OA
ATOM      2  N   UNL     1       0.197   1.024  -0.382  0.00  0.00    -0.262 N 
ATOM      3  C   UNL     1       0.505   2.307  -0.923  0.00  0.00    +0.251 C 
ENDROOT
BRANCH   2   4
ATOM      4  C   UNL     1      -0.599   0.957   0.844  0.00  0.00    +0.079 A 
ATOM      5  C   UNL     1      -1.955   0.892   0.729  0.00  0.00    +0.150 A 
ATOM      6  C   UNL     1       0.083   0.963   2.024  0.00  0.00    +0.027 A 
ATOM      7  C   UNL     1      -2.701   0.827   1.907  0.00  0.00    +0.048 A 
ATOM      8  C   UNL     1      -0.662   0.898   3.201  0.00  0.00    +0.002 A 
ATOM      9  C   UNL     1      -2.054   0.830   3.143  0.00  0.00    +0.004 A 
BRANCH   5  10
ATOM     10  O   UNL     1      -2.606   0.889  -0.468  0.00  0.00    -0.454 OA
BRANCH  10  11
ATOM     11  C   UNL     1      -3.397  -0.207  -0.765  0.00  0.00    +0.129 A 
ATOM     12  C   UNL     1      -2.909  -1.478  -0.522  0.00  0.00    +0.046 A 
ATOM     13  C   UNL     1      -4.658  -0.004  -1.299  0.00  0.00    +0.046 A 
ATOM     14  C   UNL     1      -3.706  -2.583  -0.823  0.00  0.00    +0.004 A 
ATOM     15  C   UNL     1      -5.455  -1.109  -1.599  0.00  0.00    +0.004 A 
ATOM     16  C   UNL     1      -4.979  -2.398  -1.361  0.00  0.00    +0.000 A 
ENDBRANCH  10  11
ENDBRANCH   5  10
ENDBRANCH   2   4
BRANCH   3  18
ATOM     17  F   UNL     1       0.316   4.661  -0.732  0.00  0.00    -0.239 F 
ATOM     18  C   UNL     1       0.001   3.484  -0.120  0.00  0.00    +0.309 C 
ENDBRANCH   3  18
BRANCH   2  19
ATOM     19  C   UNL     1       0.633  -0.208  -0.988  0.00  0.00    +0.152 C 
BRANCH  19  20
ATOM     20  C   UNL     1       1.961  -0.653  -0.472  0.00  0.00    +0.015 A 
ATOM     21  C   UNL     1       2.050  -1.485   0.644  0.00  0.00    +0.125 A 
ATOM     22  C   UNL     1       3.121  -0.227  -1.119  0.00  0.00    +0.054 A 
ATOM     23  C   UNL     1       4.371  -0.632  -0.649  0.00  0.00    +0.121 A 
ATOM     24  C   UNL     1       3.300  -1.891   1.113  0.00  0.00    +0.049 A 
ATOM     25  C   UNL     1       4.460  -1.464   0.467  0.00  0.00    +0.049 A 
BRANCH  23  26
ATOM     26  O   UNL     1       5.503  -0.218  -1.281  0.00  0.00    -0.495 OA
ATOM     27  C   UNL     1       6.747  -0.672  -0.750  0.00  0.00    +0.277 C 
ENDBRANCH  23  26
BRANCH  21  28
ATOM     28  O   UNL     1       0.927  -1.909   1.288  0.00  0.00    -0.495 OA
ATOM     29  C   UNL     1       0.345  -3.131   0.838  0.00  0.00    +0.277 C 
ENDBRANCH  21  28
ENDBRANCH  19  20
ENDBRANCH   2  19
TORSDOF 8
