MODEL 1
REMARK VINA RESULT:    -5.538      0.000      0.000
REMARK INTER + INTRA:          -9.894
REMARK INTER:                  -8.452
REMARK INTRA:                  -1.441
REMARK UNBOUND:                -1.441
REMARK  Name = 24944913
REMARK  11 active torsions:
REMARK  status: ('A' for Active; 'I' for Inactive)
REMARK    1  A    between atoms: O_4  and  C_24
REMARK    2  A    between atoms: O_4  and  C_27
REMARK    3  A    between atoms: N_6  and  C_14
REMARK    4  A    between atoms: N_6  and  C_15
REMARK    5  A    between atoms: C_8  and  C_9
REMARK    6  A    between atoms: C_9  and  C_12
REMARK    7  A    between atoms: C_10  and  C_13
REMARK    8  A    between atoms: C_14  and  C_22
REMARK    9  A    between atoms: C_15  and  C_23
REMARK   10  A    between atoms: C_27  and  C_28
REMARK   11  A    between atoms: C_28  and  C_29
REMARK                            x       y       z     vdW  Elec       q    Type
REMARK                         _______ _______ _______ _____ _____    ______ ____
ROOT
ATOM      1 CL   UNL     1      12.603  11.442   1.003  0.00  0.00    -0.082 Cl
ATOM      2  N   UNL     1       9.527  12.800   3.103  0.00  0.00    -0.301 N 
ATOM      3  N   UNL     1       8.992  13.159   5.245  0.00  0.00    -0.228 NA
ATOM      4  C   UNL     1       8.251  13.303   3.106  0.00  0.00    +0.060 A 
ATOM      5  C   UNL     1       7.947  13.513   4.431  0.00  0.00    +0.093 A 
ATOM      6  C   UNL     1       9.936  12.730   4.433  0.00  0.00    +0.139 A 
ATOM      7  C   UNL     1      10.324  12.412   2.029  0.00  0.00    +0.113 A 
ATOM      8  C   UNL     1      11.248  12.232   4.681  0.00  0.00    +0.048 A 
ATOM      9  C   UNL     1      11.559  11.942   2.275  0.00  0.00    +0.058 A 
ATOM     10  C   UNL     1      12.027  11.853   3.649  0.00  0.00    +0.025 A 
ENDROOT
BRANCH   5  11
ATOM     11  C   UNL     1       6.708  14.036   4.920  0.00  0.00    +0.002 A 
ATOM     12  C   UNL     1       5.680  13.166   5.281  0.00  0.00    +0.013 A 
ATOM     13  C   UNL     1       6.528  15.414   5.033  0.00  0.00    +0.013 A 
ATOM     14  C   UNL     1       4.291  15.052   5.871  0.00  0.00    +0.121 A 
ATOM     15  C   UNL     1       4.471  13.674   5.757  0.00  0.00    +0.046 A 
ATOM     16  C   UNL     1       5.319  15.922   5.509  0.00  0.00    +0.046 A 
BRANCH  14  17
ATOM     17  O   UNL     1       3.111  15.548   6.335  0.00  0.00    -0.492 OA
BRANCH  17  18
ATOM     18  C   UNL     1       2.040  14.621   6.508  0.00  0.00    +0.231 C 
BRANCH  18  19
ATOM     19  C   UNL     1       1.005  14.857   5.417  0.00  0.00    +0.074 C 
BRANCH  19  21
ATOM     20  F   UNL     1       1.531  12.707   4.641  0.00  0.00    -0.249 F 
ATOM     21  C   UNL     1       0.486  13.554   4.839  0.00  0.00    +0.216 C 
ENDBRANCH  19  21
ENDBRANCH  18  19
ENDBRANCH  17  18
ENDBRANCH  14  17
ENDBRANCH   5  11
BRANCH   4  22
ATOM     22  C   UNL     1       7.464  13.527   1.876  0.00  0.00    +0.151 C 
BRANCH  22  25
ATOM     23  O   UNL     1       8.309  15.770   1.851  0.00  0.00    -0.275 OA
ATOM     24  N   UNL     1       6.885  15.207   0.112  0.00  0.00    -0.302 N 
ATOM     25  C   UNL     1       7.595  14.937   1.286  0.00  0.00    +0.221 C 
BRANCH  24  26
ATOM     26  C   UNL     1       6.927  16.510  -0.548  0.00  0.00    +0.104 C 
ATOM     27  C   UNL     1       8.141  16.640  -1.445  0.00  0.00    +0.024 C 
ENDBRANCH  24  26
BRANCH  24  28
ATOM     28  C   UNL     1       6.046  14.210  -0.543  0.00  0.00    +0.104 C 
ATOM     29  C   UNL     1       6.770  13.547  -1.696  0.00  0.00    +0.024 C 
ENDBRANCH  24  28
ENDBRANCH  22  25
ENDBRANCH   4  22
TORSDOF 9
ENDMDL
