REMARK  Name = 24944913
REMARK  11 active torsions:
REMARK  status: ('A' for Active; 'I' for Inactive)
REMARK    1  A    between atoms: O_4  and  C_24
REMARK    2  A    between atoms: O_4  and  C_27
REMARK    3  A    between atoms: N_6  and  C_14
REMARK    4  A    between atoms: N_6  and  C_15
REMARK    5  A    between atoms: C_8  and  C_9
REMARK    6  A    between atoms: C_9  and  C_12
REMARK    7  A    between atoms: C_10  and  C_13
REMARK    8  A    between atoms: C_14  and  C_22
REMARK    9  A    between atoms: C_15  and  C_23
REMARK   10  A    between atoms: C_27  and  C_28
REMARK   11  A    between atoms: C_28  and  C_29
REMARK                            x       y       z     vdW  Elec       q    Type
REMARK                         _______ _______ _______ _____ _____    ______ ____
ROOT
ATOM      1 CL   UNL     1      -6.785  -0.028  -0.420  0.00  0.00    -0.082 Cl
ATOM      2  N   UNL     1      -2.923  -0.893  -0.178  0.00  0.00    -0.301 N 
ATOM      3  N   UNL     1      -1.630  -2.627   0.390  0.00  0.00    -0.228 NA
ATOM      4  C   UNL     1      -1.626  -0.478  -0.334  0.00  0.00    +0.060 A 
ATOM      5  C   UNL     1      -0.854  -1.559   0.021  0.00  0.00    +0.093 A 
ATOM      6  C   UNL     1      -2.874  -2.212   0.266  0.00  0.00    +0.139 A 
ATOM      7  C   UNL     1      -4.109  -0.196  -0.398  0.00  0.00    +0.113 A 
ATOM      8  C   UNL     1      -4.120  -2.864   0.500  0.00  0.00    +0.048 A 
ATOM      9  C   UNL     1      -5.278  -0.820  -0.173  0.00  0.00    +0.058 A 
ATOM     10  C   UNL     1      -5.273  -2.199   0.291  0.00  0.00    +0.025 A 
ENDROOT
BRANCH   5  11
ATOM     11  C   UNL     1       0.577  -1.589   0.013  0.00  0.00    +0.002 A 
ATOM     12  C   UNL     1       1.297  -0.697   0.807  0.00  0.00    +0.013 A 
ATOM     13  C   UNL     1       1.251  -2.509  -0.790  0.00  0.00    +0.013 A 
ATOM     14  C   UNL     1       3.366  -1.645  -0.003  0.00  0.00    +0.121 A 
ATOM     15  C   UNL     1       2.692  -0.725   0.799  0.00  0.00    +0.046 A 
ATOM     16  C   UNL     1       2.646  -2.537  -0.798  0.00  0.00    +0.046 A 
BRANCH  14  17
ATOM     17  O   UNL     1       4.727  -1.672  -0.011  0.00  0.00    -0.492 OA
BRANCH  17  18
ATOM     18  C   UNL     1       5.402  -0.440   0.235  0.00  0.00    +0.231 C 
BRANCH  18  19
ATOM     19  C   UNL     1       6.741  -0.459  -0.488  0.00  0.00    +0.074 C 
BRANCH  19  21
ATOM     20  F   UNL     1       7.739   1.011   1.043  0.00  0.00    -0.249 F 
ATOM     21  C   UNL     1       7.512   0.831  -0.285  0.00  0.00    +0.216 C 
ENDBRANCH  19  21
ENDBRANCH  18  19
ENDBRANCH  17  18
ENDBRANCH  14  17
ENDBRANCH   5  11
BRANCH   4  22
ATOM     22  C   UNL     1      -1.257   0.877  -0.794  0.00  0.00    +0.151 C 
BRANCH  22  25
ATOM     23  O   UNL     1      -1.850   1.682   1.385  0.00  0.00    -0.275 OA
ATOM     24  N   UNL     1      -1.005   3.265  -0.082  0.00  0.00    -0.302 N 
ATOM     25  C   UNL     1      -1.401   1.971   0.272  0.00  0.00    +0.221 C 
BRANCH  24  26
ATOM     26  C   UNL     1      -1.092   4.393   0.843  0.00  0.00    +0.104 C 
ATOM     27  C   UNL     1      -2.430   5.095   0.738  0.00  0.00    +0.024 C 
ENDBRANCH  24  26
BRANCH  24  28
ATOM     28  C   UNL     1      -0.476   3.588  -1.402  0.00  0.00    +0.104 C 
ATOM     29  C   UNL     1       1.030   3.436  -1.448  0.00  0.00    +0.024 C 
ENDBRANCH  24  28
ENDBRANCH  22  25
ENDBRANCH   4  22
TORSDOF 9
