MODEL 1
REMARK VINA RESULT:    -6.136      0.000      0.000
REMARK INTER + INTRA:          -8.409
REMARK INTER:                  -7.571
REMARK INTRA:                  -0.838
REMARK UNBOUND:                -0.838
REMARK  Name = 1345
REMARK  7 active torsions:
REMARK  status: ('A' for Active; 'I' for Inactive)
REMARK    1  A    between atoms: N_3  and  C_5
REMARK    2  A    between atoms: N_3  and  C_10
REMARK    3  A    between atoms: C_5  and  C_6
REMARK    4  A    between atoms: C_5  and  C_7
REMARK    5  A    between atoms: C_6  and  C_11
REMARK    6  A    between atoms: C_8  and  C_9
REMARK    7  A    between atoms: C_14  and  C_16
REMARK                            x       y       z     vdW  Elec       q    Type
REMARK                         _______ _______ _______ _____ _____    ______ ____
ROOT
ATOM      1  N   UNL     1      -0.326  17.113   6.320  0.00  0.00    -0.241 NA
ATOM      2  C   UNL     1       0.683  16.931   5.441  0.00  0.00    +0.127 A 
ATOM      3  C   UNL     1      -0.132  14.760   6.908  0.00  0.00    +0.008 A 
ATOM      4  C   UNL     1       0.918  14.610   5.980  0.00  0.00    -0.014 A 
ATOM      5  C   UNL     1      -0.708  16.027   7.030  0.00  0.00    +0.081 A 
ATOM      6  C   UNL     1       1.330  15.722   5.235  0.00  0.00    +0.041 A 
ATOM      7  C   UNL     1      -0.558  13.657   7.665  0.00  0.00    +0.010 A 
ATOM      8  C   UNL     1       1.522  13.351   5.829  0.00  0.00    +0.008 A 
ATOM      9  C   UNL     1       0.053  12.414   7.502  0.00  0.00    +0.001 A 
ATOM     10  C   UNL     1       1.091  12.261   6.587  0.00  0.00    +0.001 A 
ENDROOT
BRANCH   5  12
ATOM     11 CL   UNL     1       0.040  17.001   9.860  0.00  0.00    -0.083 Cl
ATOM     12  C   UNL     1      -1.793  16.317   7.945  0.00  0.00    +0.019 A 
ATOM     13  C   UNL     1      -1.559  16.764   9.247  0.00  0.00    +0.050 A 
ATOM     14  C   UNL     1      -3.101  16.140   7.495  0.00  0.00    +0.011 A 
ATOM     15  C   UNL     1      -2.633  17.034  10.096  0.00  0.00    +0.020 A 
ATOM     16  C   UNL     1      -4.175  16.409   8.344  0.00  0.00    +0.001 A 
ATOM     17  C   UNL     1      -3.941  16.856   9.644  0.00  0.00    +0.001 A 
ENDBRANCH   5  12
BRANCH   2  20
ATOM     18  O   UNL     1       2.157  18.636   4.993  0.00  0.00    -0.268 OA
ATOM     19  N   UNL     1       0.226  18.590   3.676  0.00  0.00    -0.297 N 
ATOM     20  C   UNL     1       1.078  18.108   4.687  0.00  0.00    +0.265 C 
ATOM     21  C   UNL     1      -1.034  17.938   3.348  0.00  0.00    +0.132 C 
BRANCH  19  22
ATOM     22  C   UNL     1       0.548  19.777   2.886  0.00  0.00    +0.073 C 
ATOM     23  C   UNL     1       0.076  21.026   3.621  0.00  0.00    +0.028 C 
BRANCH  22  24
ATOM     24  C   UNL     1      -0.071  19.700   1.485  0.00  0.00    +0.019 C 
ATOM     25  C   UNL     1       0.917  19.218   0.430  0.00  0.00    +0.005 C 
ENDBRANCH  22  24
ENDBRANCH  19  22
ENDBRANCH   2  20
TORSDOF 4
ENDMDL
