MODEL 1
REMARK VINA RESULT:    -6.590      0.000      0.000
REMARK INTER + INTRA:         -11.694
REMARK INTER:                 -10.058
REMARK INTRA:                  -1.636
REMARK UNBOUND:                -1.636
REMARK  Name = 
REMARK  10 active torsions:
REMARK  status: ('A' for Active; 'I' for Inactive)
REMARK    1  A    between atoms: C_1  and  C_2
REMARK    2  A    between atoms: C_2  and  N_3
REMARK    3  A    between atoms: N_3  and  C_4
REMARK    4  A    between atoms: C_4  and  C_5
REMARK    5  A    between atoms: C_13  and  C_15
REMARK    6  A    between atoms: C_15  and  N_16
REMARK    7  A    between atoms: C_21  and  C_23
REMARK    8  A    between atoms: N_29  and  C_32
REMARK    9  A    between atoms: C_32  and  C_33
REMARK   10  A    between atoms: C_33  and  C_34
REMARK                            x       y       z     vdW  Elec       q    Type
REMARK                         _______ _______ _______ _____ _____    ______ ____
ROOT
ATOM      1  N   UNL     1       7.163  13.794   7.150  0.00  0.00    +0.000 N 
ATOM      2  C   UNL     1       7.530  13.563   5.820  0.00  0.00    +0.000 A 
ATOM      3  C   UNL     1       8.248  12.382   5.799  0.00  0.00    +0.000 A 
ATOM      4  C   UNL     1       8.652  11.921   4.587  0.00  0.00    +0.000 A 
ATOM      5  N   UNL     1       8.347  12.594   3.461  0.00  0.00    +0.000 NA
ATOM      6  C   UNL     1       7.650  13.760   3.586  0.00  0.00    +0.000 A 
ATOM      7  N   UNL     1       7.207  14.290   4.748  0.00  0.00    +0.000 NA
ATOM      8  N   UNL     1       8.359  11.883   7.100  0.00  0.00    +0.000 N 
ATOM      9  C   UNL     1       7.679  12.773   7.963  0.00  0.00    +0.000 A 
ATOM     10  O   UNL     1       7.533  12.644   9.167  0.00  0.00    +0.000 OA
ENDROOT
BRANCH   6  11
ATOM     11  C   UNL     1       7.370  14.482   2.337  0.00  0.00    +0.000 A 
ATOM     12  C   UNL     1       7.258  13.790   1.113  0.00  0.00    +0.000 A 
ATOM     13  C   UNL     1       7.038  14.465  -0.089  0.00  0.00    +0.000 A 
ATOM     14  C   UNL     1       6.934  15.852  -0.095  0.00  0.00    +0.000 A 
ATOM     15  C   UNL     1       7.033  16.561   1.100  0.00  0.00    +0.000 A 
ATOM     16  C   UNL     1       7.240  15.881   2.306  0.00  0.00    +0.000 A 
ENDBRANCH   6  11
BRANCH   1  17
ATOM     17  C   UNL     1       6.376  14.915   7.597  0.00  0.00    +0.000 C 
BRANCH  17  19
ATOM     18  N   UNL     1       4.080  13.941   7.881  0.00  0.00    +0.000 N 
ATOM     19  C   UNL     1       5.197  14.516   8.504  0.00  0.00    +0.000 C 
ATOM     20  O   UNL     1       5.254  14.661   9.728  0.00  0.00    +0.000 OA
BRANCH  18  22
ATOM     21  C   UNL     1       1.968  14.393   9.170  0.00  0.00    +0.000 C 
ATOM     22  C   UNL     1       3.013  13.382   8.718  0.00  0.00    +0.000 C 
ENDBRANCH  18  22
BRANCH  18  23
ATOM     23  C   UNL     1       3.940  13.794   6.424  0.00  0.00    +0.000 C 
BRANCH  23  24
ATOM     24  C   UNL     1       2.640  14.257   5.816  0.00  0.00    +0.000 A 
ATOM     25  C   UNL     1       1.661  13.414   5.286  0.00  0.00    +0.000 A 
ATOM     26  F   UNL     1       1.846  12.091   5.224  0.00  0.00    +0.000 F 
ATOM     27  C   UNL     1       0.437  13.904   4.829  0.00  0.00    +0.000 A 
ATOM     28  C   UNL     1       0.170  15.269   4.875  0.00  0.00    +0.000 A 
ATOM     29  C   UNL     1       1.147  16.138   5.350  0.00  0.00    +0.000 A 
ATOM     30  C   UNL     1       2.365  15.630   5.805  0.00  0.00    +0.000 A 
ATOM     31  F   UNL     1       3.284  16.493   6.265  0.00  0.00    +0.000 F 
ENDBRANCH  23  24
ENDBRANCH  18  23
ENDBRANCH  17  19
ENDBRANCH   1  17
BRANCH   8  32
ATOM     32  C   UNL     1       9.056  10.685   7.494  0.00  0.00    +0.000 C 
BRANCH  32  33
ATOM     33  C   UNL     1       8.191   9.427   7.488  0.00  0.00    +0.000 C 
BRANCH  33  34
ATOM     34  C   UNL     1       8.120   8.753   8.840  0.00  0.00    +0.000 C 
ATOM     35  F   UNL     1       8.307   9.674   9.819  0.00  0.00    +0.000 F 
ATOM     36  F   UNL     1       6.877   8.242   9.022  0.00  0.00    +0.000 F 
ENDBRANCH  33  34
ENDBRANCH  32  33
ENDBRANCH   8  32
TORSDOF 9
ENDMDL
MODEL 2
REMARK VINA RESULT:    -6.515      1.960      2.520
REMARK INTER + INTRA:         -11.579
REMARK INTER:                  -9.813
REMARK INTRA:                  -1.766
REMARK UNBOUND:                -1.636
REMARK  Name = 
REMARK  10 active torsions:
REMARK  status: ('A' for Active; 'I' for Inactive)
REMARK    1  A    between atoms: C_1  and  C_2
REMARK    2  A    between atoms: C_2  and  N_3
REMARK    3  A    between atoms: N_3  and  C_4
REMARK    4  A    between atoms: C_4  and  C_5
REMARK    5  A    between atoms: C_13  and  C_15
REMARK    6  A    between atoms: C_15  and  N_16
REMARK    7  A    between atoms: C_21  and  C_23
REMARK    8  A    between atoms: N_29  and  C_32
REMARK    9  A    between atoms: C_32  and  C_33
REMARK   10  A    between atoms: C_33  and  C_34
REMARK                            x       y       z     vdW  Elec       q    Type
REMARK                         _______ _______ _______ _____ _____    ______ ____
ROOT
ATOM      1  N   UNL     1       6.991  12.806   5.248  0.00  0.00    +0.000 N 
ATOM      2  C   UNL     1       7.814  12.971   4.130  0.00  0.00    +0.000 A 
ATOM      3  C   UNL     1       9.044  12.426   4.449  0.00  0.00    +0.000 A 
ATOM      4  C   UNL     1       9.991  12.415   3.476  0.00  0.00    +0.000 A 
ATOM      5  N   UNL     1       9.722  12.907   2.252  0.00  0.00    +0.000 NA
ATOM      6  C   UNL     1       8.485  13.441   2.039  0.00  0.00    +0.000 A 
ATOM      7  N   UNL     1       7.484  13.492   2.946  0.00  0.00    +0.000 NA
ATOM      8  N   UNL     1       9.011  11.944   5.761  0.00  0.00    +0.000 N 
ATOM      9  C   UNL     1       7.716  12.185   6.277  0.00  0.00    +0.000 A 
ATOM     10  O   UNL     1       7.306  11.865   7.380  0.00  0.00    +0.000 OA
ENDROOT
BRANCH   6  11
ATOM     11  C   UNL     1       8.245  14.002   0.701  0.00  0.00    +0.000 A 
ATOM     12  C   UNL     1       9.264  14.697   0.017  0.00  0.00    +0.000 A 
ATOM     13  C   UNL     1       9.039  15.276  -1.233  0.00  0.00    +0.000 A 
ATOM     14  C   UNL     1       7.784  15.181  -1.825  0.00  0.00    +0.000 A 
ATOM     15  C   UNL     1       6.761  14.493  -1.175  0.00  0.00    +0.000 A 
ATOM     16  C   UNL     1       6.992  13.902   0.072  0.00  0.00    +0.000 A 
ENDBRANCH   6  11
BRANCH   1  17
ATOM     17  C   UNL     1       5.611  13.216   5.315  0.00  0.00    +0.000 C 
BRANCH  17  19
ATOM     18  N   UNL     1       4.644  14.934   6.868  0.00  0.00    +0.000 N 
ATOM     19  C   UNL     1       5.426  14.688   5.731  0.00  0.00    +0.000 C 
ATOM     20  O   UNL     1       5.977  15.602   5.112  0.00  0.00    +0.000 OA
BRANCH  18  22
ATOM     21  C   UNL     1       3.505  17.175   6.794  0.00  0.00    +0.000 C 
ATOM     22  C   UNL     1       4.588  16.298   7.406  0.00  0.00    +0.000 C 
ENDBRANCH  18  22
BRANCH  18  23
ATOM     23  C   UNL     1       3.923  13.888   7.609  0.00  0.00    +0.000 C 
BRANCH  23  24
ATOM     24  C   UNL     1       2.424  13.854   7.453  0.00  0.00    +0.000 A 
ATOM     25  C   UNL     1       1.746  13.289   6.370  0.00  0.00    +0.000 A 
ATOM     26  F   UNL     1       2.411  12.776   5.329  0.00  0.00    +0.000 F 
ATOM     27  C   UNL     1       0.355  13.203   6.336  0.00  0.00    +0.000 A 
ATOM     28  C   UNL     1      -0.402  13.705   7.392  0.00  0.00    +0.000 A 
ATOM     29  C   UNL     1       0.244  14.319   8.460  0.00  0.00    +0.000 A 
ATOM     30  C   UNL     1       1.637  14.395   8.478  0.00  0.00    +0.000 A 
ATOM     31  F   UNL     1       2.231  14.985   9.525  0.00  0.00    +0.000 F 
ENDBRANCH  23  24
ENDBRANCH  18  23
ENDBRANCH  17  19
ENDBRANCH   1  17
BRANCH   8  32
ATOM     32  C   UNL     1      10.105  11.328   6.467  0.00  0.00    +0.000 C 
BRANCH  32  33
ATOM     33  C   UNL     1      10.142   9.805   6.359  0.00  0.00    +0.000 C 
BRANCH  33  34
ATOM     34  C   UNL     1       9.477   9.115   7.529  0.00  0.00    +0.000 C 
ATOM     35  F   UNL     1       8.220   8.741   7.183  0.00  0.00    +0.000 F 
ATOM     36  F   UNL     1      10.153   7.976   7.820  0.00  0.00    +0.000 F 
ENDBRANCH  33  34
ENDBRANCH  32  33
ENDBRANCH   8  32
TORSDOF 9
ENDMDL
MODEL 3
REMARK VINA RESULT:    -6.477      1.911      2.622
REMARK INTER + INTRA:         -11.521
REMARK INTER:                  -9.571
REMARK INTRA:                  -1.950
REMARK UNBOUND:                -1.636
REMARK  Name = 
REMARK  10 active torsions:
REMARK  status: ('A' for Active; 'I' for Inactive)
REMARK    1  A    between atoms: C_1  and  C_2
REMARK    2  A    between atoms: C_2  and  N_3
REMARK    3  A    between atoms: N_3  and  C_4
REMARK    4  A    between atoms: C_4  and  C_5
REMARK    5  A    between atoms: C_13  and  C_15
REMARK    6  A    between atoms: C_15  and  N_16
REMARK    7  A    between atoms: C_21  and  C_23
REMARK    8  A    between atoms: N_29  and  C_32
REMARK    9  A    between atoms: C_32  and  C_33
REMARK   10  A    between atoms: C_33  and  C_34
REMARK                            x       y       z     vdW  Elec       q    Type
REMARK                         _______ _______ _______ _____ _____    ______ ____
ROOT
ATOM      1  N   UNL     1       6.981  12.790   5.241  0.00  0.00    +0.000 N 
ATOM      2  C   UNL     1       7.811  12.971   4.131  0.00  0.00    +0.000 A 
ATOM      3  C   UNL     1       9.042  12.430   4.454  0.00  0.00    +0.000 A 
ATOM      4  C   UNL     1       9.995  12.435   3.487  0.00  0.00    +0.000 A 
ATOM      5  N   UNL     1       9.733  12.938   2.266  0.00  0.00    +0.000 NA
ATOM      6  C   UNL     1       8.494  13.466   2.049  0.00  0.00    +0.000 A 
ATOM      7  N   UNL     1       7.486  13.502   2.950  0.00  0.00    +0.000 NA
ATOM      8  N   UNL     1       9.002  11.935   5.760  0.00  0.00    +0.000 N 
ATOM      9  C   UNL     1       7.703  12.163   6.269  0.00  0.00    +0.000 A 
ATOM     10  O   UNL     1       7.287  11.830   7.366  0.00  0.00    +0.000 OA
ENDROOT
BRANCH   6  11
ATOM     11  C   UNL     1       8.260  14.039   0.715  0.00  0.00    +0.000 A 
ATOM     12  C   UNL     1       9.279  14.750   0.048  0.00  0.00    +0.000 A 
ATOM     13  C   UNL     1       9.059  15.340  -1.199  0.00  0.00    +0.000 A 
ATOM     14  C   UNL     1       7.810  15.240  -1.802  0.00  0.00    +0.000 A 
ATOM     15  C   UNL     1       6.787  14.536  -1.168  0.00  0.00    +0.000 A 
ATOM     16  C   UNL     1       7.013  13.934   0.075  0.00  0.00    +0.000 A 
ENDBRANCH   6  11
BRANCH   1  17
ATOM     17  C   UNL     1       5.598  13.191   5.302  0.00  0.00    +0.000 C 
BRANCH  17  19
ATOM     18  N   UNL     1       4.596  14.815   6.932  0.00  0.00    +0.000 N 
ATOM     19  C   UNL     1       5.398  14.636   5.797  0.00  0.00    +0.000 C 
ATOM     20  O   UNL     1       5.954  15.586   5.239  0.00  0.00    +0.000 OA
BRANCH  18  22
ATOM     21  C   UNL     1       4.932  16.193   9.010  0.00  0.00    +0.000 C 
ATOM     22  C   UNL     1       4.523  16.147   7.545  0.00  0.00    +0.000 C 
ENDBRANCH  18  22
BRANCH  18  23
ATOM     23  C   UNL     1       3.869  13.726   7.602  0.00  0.00    +0.000 C 
BRANCH  23  24
ATOM     24  C   UNL     1       2.363  13.781   7.552  0.00  0.00    +0.000 A 
ATOM     25  C   UNL     1       1.545  14.231   8.592  0.00  0.00    +0.000 A 
ATOM     26  F   UNL     1       2.062  14.599   9.769  0.00  0.00    +0.000 F 
ATOM     27  C   UNL     1       0.164  14.350   8.442  0.00  0.00    +0.000 A 
ATOM     28  C   UNL     1      -0.441  13.998   7.239  0.00  0.00    +0.000 A 
ATOM     29  C   UNL     1       0.342  13.497   6.204  0.00  0.00    +0.000 A 
ATOM     30  C   UNL     1       1.723  13.387   6.370  0.00  0.00    +0.000 A 
ATOM     31  F   UNL     1       2.452  12.909   5.351  0.00  0.00    +0.000 F 
ENDBRANCH  23  24
ENDBRANCH  18  23
ENDBRANCH  17  19
ENDBRANCH   1  17
BRANCH   8  32
ATOM     32  C   UNL     1      10.095  11.318   6.468  0.00  0.00    +0.000 C 
BRANCH  32  33
ATOM     33  C   UNL     1      10.150   9.799   6.333  0.00  0.00    +0.000 C 
BRANCH  33  34
ATOM     34  C   UNL     1       9.493   9.080   7.491  0.00  0.00    +0.000 C 
ATOM     35  F   UNL     1       9.442   9.902   8.569  0.00  0.00    +0.000 F 
ATOM     36  F   UNL     1       8.209   8.788   7.166  0.00  0.00    +0.000 F 
ENDBRANCH  33  34
ENDBRANCH  32  33
ENDBRANCH   8  32
TORSDOF 9
ENDMDL
MODEL 4
REMARK VINA RESULT:    -6.185      2.577      5.982
REMARK INTER + INTRA:         -11.075
REMARK INTER:                  -9.427
REMARK INTRA:                  -1.648
REMARK UNBOUND:                -1.636
REMARK  Name = 
REMARK  10 active torsions:
REMARK  status: ('A' for Active; 'I' for Inactive)
REMARK    1  A    between atoms: C_1  and  C_2
REMARK    2  A    between atoms: C_2  and  N_3
REMARK    3  A    between atoms: N_3  and  C_4
REMARK    4  A    between atoms: C_4  and  C_5
REMARK    5  A    between atoms: C_13  and  C_15
REMARK    6  A    between atoms: C_15  and  N_16
REMARK    7  A    between atoms: C_21  and  C_23
REMARK    8  A    between atoms: N_29  and  C_32
REMARK    9  A    between atoms: C_32  and  C_33
REMARK   10  A    between atoms: C_33  and  C_34
REMARK                            x       y       z     vdW  Elec       q    Type
REMARK                         _______ _______ _______ _____ _____    ______ ____
ROOT
ATOM      1  N   UNL     1       7.935  12.485   4.603  0.00  0.00    +0.000 N 
ATOM      2  C   UNL     1       6.865  12.873   5.416  0.00  0.00    +0.000 A 
ATOM      3  C   UNL     1       7.314  12.829   6.723  0.00  0.00    +0.000 A 
ATOM      4  C   UNL     1       6.452  13.235   7.690  0.00  0.00    +0.000 A 
ATOM      5  N   UNL     1       5.219  13.671   7.371  0.00  0.00    +0.000 NA
ATOM      6  C   UNL     1       4.861  13.659   6.055  0.00  0.00    +0.000 A 
ATOM      7  N   UNL     1       5.653  13.275   5.029  0.00  0.00    +0.000 NA
ATOM      8  N   UNL     1       8.643  12.396   6.742  0.00  0.00    +0.000 N 
ATOM      9  C   UNL     1       9.043  12.171   5.405  0.00  0.00    +0.000 A 
ATOM     10  O   UNL     1      10.150  11.822   5.030  0.00  0.00    +0.000 OA
ENDROOT
BRANCH   6  11
ATOM     11  C   UNL     1       3.493  14.106   5.753  0.00  0.00    +0.000 A 
ATOM     12  C   UNL     1       3.136  15.465   5.872  0.00  0.00    +0.000 A 
ATOM     13  C   UNL     1       1.831  15.900   5.635  0.00  0.00    +0.000 A 
ATOM     14  C   UNL     1       0.849  14.981   5.280  0.00  0.00    +0.000 A 
ATOM     15  C   UNL     1       1.175  13.633   5.147  0.00  0.00    +0.000 A 
ATOM     16  C   UNL     1       2.487  13.201   5.373  0.00  0.00    +0.000 A 
ENDBRANCH   6  11
BRANCH   1  17
ATOM     17  C   UNL     1       7.888  12.425   3.165  0.00  0.00    +0.000 C 
BRANCH  17  19
ATOM     18  N   UNL     1       8.958  14.520   2.288  0.00  0.00    +0.000 N 
ATOM     19  C   UNL     1       9.071  13.136   2.479  0.00  0.00    +0.000 C 
ATOM     20  O   UNL     1      10.087  12.516   2.153  0.00  0.00    +0.000 OA
BRANCH  18  22
ATOM     21  C   UNL     1      10.474  16.497   2.630  0.00  0.00    +0.000 C 
ATOM     22  C   UNL     1      10.127  15.265   1.806  0.00  0.00    +0.000 C 
ENDBRANCH  18  22
BRANCH  18  23
ATOM     23  C   UNL     1       7.750  15.296   2.610  0.00  0.00    +0.000 C 
BRANCH  23  24
ATOM     24  C   UNL     1       7.012  15.917   1.451  0.00  0.00    +0.000 A 
ATOM     25  C   UNL     1       6.528  15.217   0.344  0.00  0.00    +0.000 A 
ATOM     26  F   UNL     1       6.750  13.905   0.204  0.00  0.00    +0.000 F 
ATOM     27  C   UNL     1       5.767  15.839  -0.645  0.00  0.00    +0.000 A 
ATOM     28  C   UNL     1       5.485  17.199  -0.558  0.00  0.00    +0.000 A 
ATOM     29  C   UNL     1       5.998  17.933   0.507  0.00  0.00    +0.000 A 
ATOM     30  C   UNL     1       6.757  17.294   1.488  0.00  0.00    +0.000 A 
ATOM     31  F   UNL     1       7.230  18.027   2.507  0.00  0.00    +0.000 F 
ENDBRANCH  23  24
ENDBRANCH  18  23
ENDBRANCH  17  19
ENDBRANCH   1  17
BRANCH   8  32
ATOM     32  C   UNL     1       9.454  12.198   7.917  0.00  0.00    +0.000 C 
BRANCH  32  33
ATOM     33  C   UNL     1       9.120  10.932   8.702  0.00  0.00    +0.000 C 
BRANCH  33  34
ATOM     34  C   UNL     1       9.315   9.668   7.895  0.00  0.00    +0.000 C 
ATOM     35  F   UNL     1       9.710   8.661   8.713  0.00  0.00    +0.000 F 
ATOM     36  F   UNL     1       8.126   9.290   7.362  0.00  0.00    +0.000 F 
ENDBRANCH  33  34
ENDBRANCH  32  33
ENDBRANCH   8  32
TORSDOF 9
ENDMDL
MODEL 5
REMARK VINA RESULT:    -6.177      3.133      5.861
REMARK INTER + INTRA:         -11.063
REMARK INTER:                  -9.681
REMARK INTRA:                  -1.382
REMARK UNBOUND:                -1.636
REMARK  Name = 
REMARK  10 active torsions:
REMARK  status: ('A' for Active; 'I' for Inactive)
REMARK    1  A    between atoms: C_1  and  C_2
REMARK    2  A    between atoms: C_2  and  N_3
REMARK    3  A    between atoms: N_3  and  C_4
REMARK    4  A    between atoms: C_4  and  C_5
REMARK    5  A    between atoms: C_13  and  C_15
REMARK    6  A    between atoms: C_15  and  N_16
REMARK    7  A    between atoms: C_21  and  C_23
REMARK    8  A    between atoms: N_29  and  C_32
REMARK    9  A    between atoms: C_32  and  C_33
REMARK   10  A    between atoms: C_33  and  C_34
REMARK                            x       y       z     vdW  Elec       q    Type
REMARK                         _______ _______ _______ _____ _____    ______ ____
ROOT
ATOM      1  N   UNL     1       7.402  12.916   4.649  0.00  0.00    +0.000 N 
ATOM      2  C   UNL     1       8.326  12.064   5.263  0.00  0.00    +0.000 A 
ATOM      3  C   UNL     1       9.562  12.343   4.709  0.00  0.00    +0.000 A 
ATOM      4  C   UNL     1      10.632  11.673   5.209  0.00  0.00    +0.000 A 
ATOM      5  N   UNL     1      10.480  10.787   6.212  0.00  0.00    +0.000 NA
ATOM      6  C   UNL     1       9.217  10.567   6.679  0.00  0.00    +0.000 A 
ATOM      7  N   UNL     1       8.098  11.188   6.244  0.00  0.00    +0.000 NA
ATOM      8  N   UNL     1       9.421  13.339   3.739  0.00  0.00    +0.000 N 
ATOM      9  C   UNL     1       8.056  13.705   3.690  0.00  0.00    +0.000 A 
ATOM     10  O   UNL     1       7.564  14.572   2.987  0.00  0.00    +0.000 OA
ENDROOT
BRANCH   6  11
ATOM     11  C   UNL     1       9.090   9.564   7.747  0.00  0.00    +0.000 A 
ATOM     12  C   UNL     1      10.196   8.782   8.137  0.00  0.00    +0.000 A 
ATOM     13  C   UNL     1      10.080   7.793   9.117  0.00  0.00    +0.000 A 
ATOM     14  C   UNL     1       8.851   7.560   9.723  0.00  0.00    +0.000 A 
ATOM     15  C   UNL     1       7.743   8.324   9.363  0.00  0.00    +0.000 A 
ATOM     16  C   UNL     1       7.863   9.323   8.390  0.00  0.00    +0.000 A 
ENDBRANCH   6  11
BRANCH   1  17
ATOM     17  C   UNL     1       5.997  12.962   4.967  0.00  0.00    +0.000 C 
BRANCH  17  19
ATOM     18  N   UNL     1       4.315  14.003   6.512  0.00  0.00    +0.000 N 
ATOM     19  C   UNL     1       5.668  13.863   6.172  0.00  0.00    +0.000 C 
ATOM     20  O   UNL     1       6.561  14.401   6.831  0.00  0.00    +0.000 OA
BRANCH  18  22
ATOM     21  C   UNL     1       3.970  13.820   8.996  0.00  0.00    +0.000 C 
ATOM     22  C   UNL     1       3.965  14.700   7.754  0.00  0.00    +0.000 C 
ENDBRANCH  18  22
BRANCH  18  23
ATOM     23  C   UNL     1       3.210  13.426   5.730  0.00  0.00    +0.000 C 
BRANCH  23  24
ATOM     24  C   UNL     1       1.810  13.749   6.189  0.00  0.00    +0.000 A 
ATOM     25  C   UNL     1       0.997  12.893   6.935  0.00  0.00    +0.000 A 
ATOM     26  F   UNL     1       1.398  11.657   7.251  0.00  0.00    +0.000 F 
ATOM     27  C   UNL     1      -0.251  13.295   7.412  0.00  0.00    +0.000 A 
ATOM     28  C   UNL     1      -0.728  14.572   7.133  0.00  0.00    +0.000 A 
ATOM     29  C   UNL     1       0.039  15.429   6.348  0.00  0.00    +0.000 A 
ATOM     30  C   UNL     1       1.286  15.011   5.881  0.00  0.00    +0.000 A 
ATOM     31  F   UNL     1       2.005  15.862   5.134  0.00  0.00    +0.000 F 
ENDBRANCH  23  24
ENDBRANCH  18  23
ENDBRANCH  17  19
ENDBRANCH   1  17
BRANCH   8  32
ATOM     32  C   UNL     1      10.476  13.884   2.923  0.00  0.00    +0.000 C 
BRANCH  32  33
ATOM     33  C   UNL     1      10.757  13.089   1.650  0.00  0.00    +0.000 C 
BRANCH  33  34
ATOM     34  C   UNL     1      12.000  12.234   1.750  0.00  0.00    +0.000 C 
ATOM     35  F   UNL     1      11.649  10.940   1.958  0.00  0.00    +0.000 F 
ATOM     36  F   UNL     1      12.665  12.269   0.569  0.00  0.00    +0.000 F 
ENDBRANCH  33  34
ENDBRANCH  32  33
ENDBRANCH   8  32
TORSDOF 9
ENDMDL
MODEL 6
REMARK VINA RESULT:    -6.168      5.084      8.804
REMARK INTER + INTRA:         -11.050
REMARK INTER:                  -8.988
REMARK INTRA:                  -2.061
REMARK UNBOUND:                -1.636
REMARK  Name = 
REMARK  10 active torsions:
REMARK  status: ('A' for Active; 'I' for Inactive)
REMARK    1  A    between atoms: C_1  and  C_2
REMARK    2  A    between atoms: C_2  and  N_3
REMARK    3  A    between atoms: N_3  and  C_4
REMARK    4  A    between atoms: C_4  and  C_5
REMARK    5  A    between atoms: C_13  and  C_15
REMARK    6  A    between atoms: C_15  and  N_16
REMARK    7  A    between atoms: C_21  and  C_23
REMARK    8  A    between atoms: N_29  and  C_32
REMARK    9  A    between atoms: C_32  and  C_33
REMARK   10  A    between atoms: C_33  and  C_34
REMARK                            x       y       z     vdW  Elec       q    Type
REMARK                         _______ _______ _______ _____ _____    ______ ____
ROOT
ATOM      1  N   UNL     1      12.560   8.158   5.855  0.00  0.00    +0.000 N 
ATOM      2  C   UNL     1      11.953   7.569   6.970  0.00  0.00    +0.000 A 
ATOM      3  C   UNL     1      12.794   6.560   7.401  0.00  0.00    +0.000 A 
ATOM      4  C   UNL     1      12.433   5.888   8.525  0.00  0.00    +0.000 A 
ATOM      5  N   UNL     1      11.307   6.213   9.186  0.00  0.00    +0.000 NA
ATOM      6  C   UNL     1      10.533   7.212   8.672  0.00  0.00    +0.000 A 
ATOM      7  N   UNL     1      10.815   7.933   7.564  0.00  0.00    +0.000 NA
ATOM      8  N   UNL     1      13.906   6.491   6.557  0.00  0.00    +0.000 N 
ATOM      9  C   UNL     1      13.765   7.496   5.573  0.00  0.00    +0.000 A 
ATOM     10  O   UNL     1      14.562   7.760   4.688  0.00  0.00    +0.000 OA
ENDROOT
BRANCH   6  11
ATOM     11  C   UNL     1       9.293   7.510   9.404  0.00  0.00    +0.000 A 
ATOM     12  C   UNL     1       8.901   6.726  10.508  0.00  0.00    +0.000 A 
ATOM     13  C   UNL     1       7.703   6.966  11.184  0.00  0.00    +0.000 A 
ATOM     14  C   UNL     1       6.865   7.994  10.765  0.00  0.00    +0.000 A 
ATOM     15  C   UNL     1       7.232   8.790   9.681  0.00  0.00    +0.000 A 
ATOM     16  C   UNL     1       8.439   8.556   9.012  0.00  0.00    +0.000 A 
ENDBRANCH   6  11
BRANCH   1  17
ATOM     17  C   UNL     1      12.016   9.273   5.124  0.00  0.00    +0.000 C 
BRANCH  17  19
ATOM     18  N   UNL     1      11.135  11.300   6.313  0.00  0.00    +0.000 N 
ATOM     19  C   UNL     1      12.258  10.634   5.804  0.00  0.00    +0.000 C 
ATOM     20  O   UNL     1      13.397  11.092   5.930  0.00  0.00    +0.000 OA
BRANCH  18  22
ATOM     21  C   UNL     1      10.721  12.441   8.516  0.00  0.00    +0.000 C 
ATOM     22  C   UNL     1      11.335  12.506   7.125  0.00  0.00    +0.000 C 
ENDBRANCH  18  22
BRANCH  18  23
ATOM     23  C   UNL     1       9.753  10.824   6.144  0.00  0.00    +0.000 C 
BRANCH  23  24
ATOM     24  C   UNL     1       8.791  11.761   5.458  0.00  0.00    +0.000 A 
ATOM     25  C   UNL     1       8.945  12.256   4.161  0.00  0.00    +0.000 A 
ATOM     26  F   UNL     1      10.032  11.970   3.436  0.00  0.00    +0.000 F 
ATOM     27  C   UNL     1       7.966  13.040   3.552  0.00  0.00    +0.000 A 
ATOM     28  C   UNL     1       6.802  13.366   4.242  0.00  0.00    +0.000 A 
ATOM     29  C   UNL     1       6.644  12.929   5.554  0.00  0.00    +0.000 A 
ATOM     30  C   UNL     1       7.634  12.145   6.148  0.00  0.00    +0.000 A 
ATOM     31  F   UNL     1       7.448  11.732   7.410  0.00  0.00    +0.000 F 
ENDBRANCH  23  24
ENDBRANCH  18  23
ENDBRANCH  17  19
ENDBRANCH   1  17
BRANCH   8  32
ATOM     32  C   UNL     1      14.995   5.552   6.662  0.00  0.00    +0.000 C 
BRANCH  32  33
ATOM     33  C   UNL     1      14.619   4.115   6.309  0.00  0.00    +0.000 C 
BRANCH  33  34
ATOM     34  C   UNL     1      13.582   4.030   5.211  0.00  0.00    +0.000 C 
ATOM     35  F   UNL     1      14.120   3.428   4.121  0.00  0.00    +0.000 F 
ATOM     36  F   UNL     1      12.558   3.241   5.622  0.00  0.00    +0.000 F 
ENDBRANCH  33  34
ENDBRANCH  32  33
ENDBRANCH   8  32
TORSDOF 9
ENDMDL
MODEL 7
REMARK VINA RESULT:    -6.155      2.733      4.330
REMARK INTER + INTRA:         -11.030
REMARK INTER:                  -8.739
REMARK INTRA:                  -2.291
REMARK UNBOUND:                -1.636
REMARK  Name = 
REMARK  10 active torsions:
REMARK  status: ('A' for Active; 'I' for Inactive)
REMARK    1  A    between atoms: C_1  and  C_2
REMARK    2  A    between atoms: C_2  and  N_3
REMARK    3  A    between atoms: N_3  and  C_4
REMARK    4  A    between atoms: C_4  and  C_5
REMARK    5  A    between atoms: C_13  and  C_15
REMARK    6  A    between atoms: C_15  and  N_16
REMARK    7  A    between atoms: C_21  and  C_23
REMARK    8  A    between atoms: N_29  and  C_32
REMARK    9  A    between atoms: C_32  and  C_33
REMARK   10  A    between atoms: C_33  and  C_34
REMARK                            x       y       z     vdW  Elec       q    Type
REMARK                         _______ _______ _______ _____ _____    ______ ____
ROOT
ATOM      1  N   UNL     1       6.615  13.502   8.886  0.00  0.00    +0.000 N 
ATOM      2  C   UNL     1       5.958  13.529   7.652  0.00  0.00    +0.000 A 
ATOM      3  C   UNL     1       6.824  12.984   6.722  0.00  0.00    +0.000 A 
ATOM      4  C   UNL     1       6.365  12.846   5.451  0.00  0.00    +0.000 A 
ATOM      5  N   UNL     1       5.112  13.219   5.130  0.00  0.00    +0.000 NA
ATOM      6  C   UNL     1       4.339  13.764   6.113  0.00  0.00    +0.000 A 
ATOM      7  N   UNL     1       4.712  13.936   7.402  0.00  0.00    +0.000 NA
ATOM      8  N   UNL     1       8.023  12.639   7.351  0.00  0.00    +0.000 N 
ATOM      9  C   UNL     1       7.902  12.968   8.721  0.00  0.00    +0.000 A 
ATOM     10  O   UNL     1       8.738  12.775   9.588  0.00  0.00    +0.000 OA
ENDROOT
BRANCH   6  11
ATOM     11  C   UNL     1       2.991  14.193   5.713  0.00  0.00    +0.000 A 
ATOM     12  C   UNL     1       2.618  15.551   5.776  0.00  0.00    +0.000 A 
ATOM     13  C   UNL     1       1.328  15.969   5.444  0.00  0.00    +0.000 A 
ATOM     14  C   UNL     1       0.377  15.034   5.049  0.00  0.00    +0.000 A 
ATOM     15  C   UNL     1       0.720  13.686   4.971  0.00  0.00    +0.000 A 
ATOM     16  C   UNL     1       2.018  13.270   5.291  0.00  0.00    +0.000 A 
ENDBRANCH   6  11
BRANCH   1  17
ATOM     17  C   UNL     1       6.041  13.957  10.127  0.00  0.00    +0.000 C 
BRANCH  17  19
ATOM     18  N   UNL     1       3.996  13.222  11.383  0.00  0.00    +0.000 N 
ATOM     19  C   UNL     1       5.254  12.867  10.878  0.00  0.00    +0.000 C 
ATOM     20  O   UNL     1       5.698  11.721  10.991  0.00  0.00    +0.000 OA
BRANCH  18  22
ATOM     21  C   UNL     1       2.369  12.587  13.193  0.00  0.00    +0.000 C 
ATOM     22  C   UNL     1       3.136  12.174  11.945  0.00  0.00    +0.000 C 
ENDBRANCH  18  22
BRANCH  18  23
ATOM     23  C   UNL     1       3.444  14.585  11.322  0.00  0.00    +0.000 C 
BRANCH  23  24
ATOM     24  C   UNL     1       2.240  14.791  10.436  0.00  0.00    +0.000 A 
ATOM     25  C   UNL     1       1.885  13.967   9.367  0.00  0.00    +0.000 A 
ATOM     26  F   UNL     1       2.653  12.934   9.004  0.00  0.00    +0.000 F 
ATOM     27  C   UNL     1       0.703  14.159   8.651  0.00  0.00    +0.000 A 
ATOM     28  C   UNL     1      -0.151  15.207   8.981  0.00  0.00    +0.000 A 
ATOM     29  C   UNL     1       0.203  16.076  10.009  0.00  0.00    +0.000 A 
ATOM     30  C   UNL     1       1.388  15.867  10.716  0.00  0.00    +0.000 A 
ATOM     31  F   UNL     1       1.698  16.716  11.706  0.00  0.00    +0.000 F 
ENDBRANCH  23  24
ENDBRANCH  18  23
ENDBRANCH  17  19
ENDBRANCH   1  17
BRANCH   8  32
ATOM     32  C   UNL     1       9.182  12.066   6.715  0.00  0.00    +0.000 C 
BRANCH  32  33
ATOM     33  C   UNL     1       9.009  10.609   6.293  0.00  0.00    +0.000 C 
BRANCH  33  34
ATOM     34  C   UNL     1       9.040   9.649   7.462  0.00  0.00    +0.000 C 
ATOM     35  F   UNL     1       7.827   9.057   7.598  0.00  0.00    +0.000 F 
ATOM     36  F   UNL     1       9.928   8.657   7.204  0.00  0.00    +0.000 F 
ENDBRANCH  33  34
ENDBRANCH  32  33
ENDBRANCH   8  32
TORSDOF 9
ENDMDL
MODEL 8
REMARK VINA RESULT:    -6.058      2.709      3.596
REMARK INTER + INTRA:         -10.882
REMARK INTER:                  -9.089
REMARK INTRA:                  -1.793
REMARK UNBOUND:                -1.636
REMARK  Name = 
REMARK  10 active torsions:
REMARK  status: ('A' for Active; 'I' for Inactive)
REMARK    1  A    between atoms: C_1  and  C_2
REMARK    2  A    between atoms: C_2  and  N_3
REMARK    3  A    between atoms: N_3  and  C_4
REMARK    4  A    between atoms: C_4  and  C_5
REMARK    5  A    between atoms: C_13  and  C_15
REMARK    6  A    between atoms: C_15  and  N_16
REMARK    7  A    between atoms: C_21  and  C_23
REMARK    8  A    between atoms: N_29  and  C_32
REMARK    9  A    between atoms: C_32  and  C_33
REMARK   10  A    between atoms: C_33  and  C_34
REMARK                            x       y       z     vdW  Elec       q    Type
REMARK                         _______ _______ _______ _____ _____    ______ ____
ROOT
ATOM      1  N   UNL     1       8.162  12.477   5.403  0.00  0.00    +0.000 N 
ATOM      2  C   UNL     1       8.462  13.063   4.168  0.00  0.00    +0.000 A 
ATOM      3  C   UNL     1       9.811  12.861   3.943  0.00  0.00    +0.000 A 
ATOM      4  C   UNL     1      10.315  13.292   2.758  0.00  0.00    +0.000 A 
ATOM      5  N   UNL     1       9.517  13.879   1.846  0.00  0.00    +0.000 NA
ATOM      6  C   UNL     1       8.203  14.051   2.169  0.00  0.00    +0.000 A 
ATOM      7  N   UNL     1       7.617  13.652   3.320  0.00  0.00    +0.000 NA
ATOM      8  N   UNL     1      10.366  12.180   5.030  0.00  0.00    +0.000 N 
ATOM      9  C   UNL     1       9.331  11.937   5.962  0.00  0.00    +0.000 A 
ATOM     10  O   UNL     1       9.433  11.332   7.016  0.00  0.00    +0.000 OA
ENDROOT
BRANCH   6  11
ATOM     11  C   UNL     1       7.373  14.730   1.162  0.00  0.00    +0.000 A 
ATOM     12  C   UNL     1       7.182  16.126   1.208  0.00  0.00    +0.000 A 
ATOM     13  C   UNL     1       6.361  16.780   0.288  0.00  0.00    +0.000 A 
ATOM     14  C   UNL     1       5.703  16.049  -0.696  0.00  0.00    +0.000 A 
ATOM     15  C   UNL     1       5.881  14.669  -0.770  0.00  0.00    +0.000 A 
ATOM     16  C   UNL     1       6.715  14.016   0.145  0.00  0.00    +0.000 A 
ENDBRANCH   6  11
BRANCH   1  17
ATOM     17  C   UNL     1       6.849  12.444   5.993  0.00  0.00    +0.000 C 
BRANCH  17  19
ATOM     18  N   UNL     1       5.812  14.507   6.977  0.00  0.00    +0.000 N 
ATOM     19  C   UNL     1       6.678  13.422   7.171  0.00  0.00    +0.000 C 
ATOM     20  O   UNL     1       7.247  13.231   8.248  0.00  0.00    +0.000 OA
BRANCH  18  22
ATOM     21  C   UNL     1       4.424  14.782   9.056  0.00  0.00    +0.000 C 
ATOM     22  C   UNL     1       5.478  15.360   8.123  0.00  0.00    +0.000 C 
ENDBRANCH  18  22
BRANCH  18  23
ATOM     23  C   UNL     1       5.150  14.809   5.698  0.00  0.00    +0.000 C 
BRANCH  23  24
ATOM     24  C   UNL     1       3.644  14.732   5.676  0.00  0.00    +0.000 A 
ATOM     25  C   UNL     1       2.785  15.813   5.886  0.00  0.00    +0.000 A 
ATOM     26  F   UNL     1       3.261  17.024   6.194  0.00  0.00    +0.000 F 
ATOM     27  C   UNL     1       1.402  15.690   5.754  0.00  0.00    +0.000 A 
ATOM     28  C   UNL     1       0.839  14.461   5.422  0.00  0.00    +0.000 A 
ATOM     29  C   UNL     1       1.666  13.355   5.257  0.00  0.00    +0.000 A 
ATOM     30  C   UNL     1       3.048  13.496   5.393  0.00  0.00    +0.000 A 
ATOM     31  F   UNL     1       3.820  12.413   5.220  0.00  0.00    +0.000 F 
ENDBRANCH  23  24
ENDBRANCH  18  23
ENDBRANCH  17  19
ENDBRANCH   1  17
BRANCH   8  32
ATOM     32  C   UNL     1      11.750  11.807   5.182  0.00  0.00    +0.000 C 
BRANCH  32  33
ATOM     33  C   UNL     1      12.128  10.505   4.480  0.00  0.00    +0.000 C 
BRANCH  33  34
ATOM     34  C   UNL     1      12.899  10.728   3.198  0.00  0.00    +0.000 C 
ATOM     35  F   UNL     1      13.893   9.810   3.098  0.00  0.00    +0.000 F 
ATOM     36  F   UNL     1      12.077  10.525   2.139  0.00  0.00    +0.000 F 
ENDBRANCH  33  34
ENDBRANCH  32  33
ENDBRANCH   8  32
TORSDOF 9
ENDMDL
MODEL 9
REMARK VINA RESULT:    -5.975      2.752      4.484
REMARK INTER + INTRA:         -10.755
REMARK INTER:                  -7.967
REMARK INTRA:                  -2.788
REMARK UNBOUND:                -1.636
REMARK  Name = 
REMARK  10 active torsions:
REMARK  status: ('A' for Active; 'I' for Inactive)
REMARK    1  A    between atoms: C_1  and  C_2
REMARK    2  A    between atoms: C_2  and  N_3
REMARK    3  A    between atoms: N_3  and  C_4
REMARK    4  A    between atoms: C_4  and  C_5
REMARK    5  A    between atoms: C_13  and  C_15
REMARK    6  A    between atoms: C_15  and  N_16
REMARK    7  A    between atoms: C_21  and  C_23
REMARK    8  A    between atoms: N_29  and  C_32
REMARK    9  A    between atoms: C_32  and  C_33
REMARK   10  A    between atoms: C_33  and  C_34
REMARK                            x       y       z     vdW  Elec       q    Type
REMARK                         _______ _______ _______ _____ _____    ______ ____
ROOT
ATOM      1  N   UNL     1       6.752  13.599   8.773  0.00  0.00    +0.000 N 
ATOM      2  C   UNL     1       6.039  13.601   7.569  0.00  0.00    +0.000 A 
ATOM      3  C   UNL     1       6.864  13.042   6.610  0.00  0.00    +0.000 A 
ATOM      4  C   UNL     1       6.348  12.880   5.365  0.00  0.00    +0.000 A 
ATOM      5  N   UNL     1       5.079  13.243   5.095  0.00  0.00    +0.000 NA
ATOM      6  C   UNL     1       4.350  13.803   6.102  0.00  0.00    +0.000 A 
ATOM      7  N   UNL     1       4.781  13.999   7.369  0.00  0.00    +0.000 NA
ATOM      8  N   UNL     1       8.092  12.713   7.190  0.00  0.00    +0.000 N 
ATOM      9  C   UNL     1       8.033  13.066   8.558  0.00  0.00    +0.000 A 
ATOM     10  O   UNL     1       8.908  12.892   9.389  0.00  0.00    +0.000 OA
ENDROOT
BRANCH   6  11
ATOM     11  C   UNL     1       2.983  14.219   5.757  0.00  0.00    +0.000 A 
ATOM     12  C   UNL     1       2.025  13.272   5.341  0.00  0.00    +0.000 A 
ATOM     13  C   UNL     1       0.736  13.656   4.964  0.00  0.00    +0.000 A 
ATOM     14  C   UNL     1       0.380  15.001   4.987  0.00  0.00    +0.000 A 
ATOM     15  C   UNL     1       1.305  15.957   5.401  0.00  0.00    +0.000 A 
ATOM     16  C   UNL     1       2.592  15.569   5.791  0.00  0.00    +0.000 A 
ENDBRANCH   6  11
BRANCH   1  17
ATOM     17  C   UNL     1       6.233  14.074  10.030  0.00  0.00    +0.000 C 
BRANCH  17  19
ATOM     18  N   UNL     1       4.918  16.089  10.745  0.00  0.00    +0.000 N 
ATOM     19  C   UNL     1       6.055  15.603  10.084  0.00  0.00    +0.000 C 
ATOM     20  O   UNL     1       6.899  16.362   9.603  0.00  0.00    +0.000 OA
BRANCH  18  22
ATOM     21  C   UNL     1       5.107  17.970  12.404  0.00  0.00    +0.000 C 
ATOM     22  C   UNL     1       4.798  17.532  10.979  0.00  0.00    +0.000 C 
ENDBRANCH  18  22
BRANCH  18  23
ATOM     23  C   UNL     1       3.857  15.228  11.290  0.00  0.00    +0.000 C 
BRANCH  23  24
ATOM     24  C   UNL     1       2.605  15.085  10.461  0.00  0.00    +0.000 A 
ATOM     25  C   UNL     1       1.628  16.072  10.312  0.00  0.00    +0.000 A 
ATOM     26  F   UNL     1       1.712  17.233  10.971  0.00  0.00    +0.000 F 
ATOM     27  C   UNL     1       0.544  15.909   9.451  0.00  0.00    +0.000 A 
ATOM     28  C   UNL     1       0.400  14.731   8.723  0.00  0.00    +0.000 A 
ATOM     29  C   UNL     1       1.330  13.710   8.890  0.00  0.00    +0.000 A 
ATOM     30  C   UNL     1       2.409  13.890   9.756  0.00  0.00    +0.000 A 
ATOM     31  F   UNL     1       3.294  12.891   9.889  0.00  0.00    +0.000 F 
ENDBRANCH  23  24
ENDBRANCH  18  23
ENDBRANCH  17  19
ENDBRANCH   1  17
BRANCH   8  32
ATOM     32  C   UNL     1       9.223  12.133   6.511  0.00  0.00    +0.000 C 
BRANCH  32  33
ATOM     33  C   UNL     1       8.963  10.743   5.937  0.00  0.00    +0.000 C 
BRANCH  33  34
ATOM     34  C   UNL     1       8.928   9.664   6.996  0.00  0.00    +0.000 C 
ATOM     35  F   UNL     1       7.761   9.737   7.683  0.00  0.00    +0.000 F 
ATOM     36  F   UNL     1       8.950   8.447   6.398  0.00  0.00    +0.000 F 
ENDBRANCH  33  34
ENDBRANCH  32  33
ENDBRANCH   8  32
TORSDOF 9
ENDMDL
