MODEL 1
REMARK VINA RESULT:    -6.539      0.000      0.000
REMARK INTER + INTRA:         -12.090
REMARK INTER:                 -10.362
REMARK INTRA:                  -1.728
REMARK UNBOUND:                -1.728
REMARK  Name = 
REMARK  12 active torsions:
REMARK  status: ('A' for Active; 'I' for Inactive)
REMARK    1  A    between atoms: C_1  and  C_2
REMARK    2  A    between atoms: C_2  and  N_3
REMARK    3  A    between atoms: N_3  and  C_4
REMARK    4  A    between atoms: C_4  and  C_5
REMARK    5  A    between atoms: C_13  and  C_15
REMARK    6  A    between atoms: C_15  and  N_16
REMARK    7  A    between atoms: C_21  and  C_23
REMARK    8  A    between atoms: N_29  and  C_32
REMARK    9  A    between atoms: C_32  and  O_33
REMARK   10  A    between atoms: O_33  and  C_34
REMARK   11  A    between atoms: C_34  and  C_35
REMARK   12  A    between atoms: C_35  and  C_38
REMARK                            x       y       z     vdW  Elec       q    Type
REMARK                         _______ _______ _______ _____ _____    ______ ____
ROOT
ATOM      1  N   UNL     1       8.183  12.276   5.206  0.00  0.00    +0.000 N 
ATOM      2  C   UNL     1       7.090  12.748   5.935  0.00  0.00    +0.000 A 
ATOM      3  C   UNL     1       7.464  12.781   7.262  0.00  0.00    +0.000 A 
ATOM      4  C   UNL     1       6.569  13.297   8.143  0.00  0.00    +0.000 A 
ATOM      5  N   UNL     1       5.362  13.731   7.725  0.00  0.00    +0.000 NA
ATOM      6  C   UNL     1       5.072  13.635   6.396  0.00  0.00    +0.000 A 
ATOM      7  N   UNL     1       5.913  13.158   5.447  0.00  0.00    +0.000 NA
ATOM      8  N   UNL     1       8.759  12.266   7.382  0.00  0.00    +0.000 N 
ATOM      9  C   UNL     1       9.237  11.979   6.089  0.00  0.00    +0.000 A 
ATOM     10  O   UNL     1      10.359  11.595   5.805  0.00  0.00    +0.000 OA
ENDROOT
BRANCH   6  11
ATOM     11  C   UNL     1       3.730  14.099   5.978  0.00  0.00    +0.000 A 
ATOM     12  C   UNL     1       2.738  13.186   5.562  0.00  0.00    +0.000 A 
ATOM     13  C   UNL     1       1.465  13.607   5.166  0.00  0.00    +0.000 A 
ATOM     14  C   UNL     1       1.149  14.960   5.173  0.00  0.00    +0.000 A 
ATOM     15  C   UNL     1       2.107  15.888   5.574  0.00  0.00    +0.000 A 
ATOM     16  C   UNL     1       3.379  15.462   5.971  0.00  0.00    +0.000 A 
ENDBRANCH   6  11
BRANCH   1  17
ATOM     17  C   UNL     1       8.211  12.128   3.772  0.00  0.00    +0.000 C 
BRANCH  17  19
ATOM     18  N   UNL     1       9.366  14.224   2.926  0.00  0.00    +0.000 N 
ATOM     19  C   UNL     1       9.436  12.852   3.190  0.00  0.00    +0.000 C 
ATOM     20  O   UNL     1      10.460  12.194   2.995  0.00  0.00    +0.000 OA
BRANCH  18  22
ATOM     21  C   UNL     1      10.786  14.863   0.845  0.00  0.00    +0.000 C 
ATOM     22  C   UNL     1      10.486  14.976   2.334  0.00  0.00    +0.000 C 
ENDBRANCH  18  22
BRANCH  18  23
ATOM     23  C   UNL     1       8.126  15.001   3.065  0.00  0.00    +0.000 C 
BRANCH  23  24
ATOM     24  C   UNL     1       7.355  15.233   1.788  0.00  0.00    +0.000 A 
ATOM     25  C   UNL     1       6.963  16.546   1.481  0.00  0.00    +0.000 A 
ATOM     26  F   UNL     1       7.213  17.531   2.354  0.00  0.00    +0.000 F 
ATOM     27  C   UNL     1       6.331  16.863   0.279  0.00  0.00    +0.000 A 
ATOM     28  C   UNL     1       6.066  15.854  -0.643  0.00  0.00    +0.000 A 
ATOM     29  C   UNL     1       6.403  14.542  -0.329  0.00  0.00    +0.000 A 
ATOM     30  F   UNL     1       6.138  13.570  -1.210  0.00  0.00    +0.000 F 
ATOM     31  C   UNL     1       7.028  14.222   0.875  0.00  0.00    +0.000 A 
ENDBRANCH  23  24
ENDBRANCH  18  23
ENDBRANCH  17  19
ENDBRANCH   1  17
BRANCH   8  32
ATOM     32  C   UNL     1       9.559  12.194   8.564  0.00  0.00    +0.000 C 
BRANCH  32  33
ATOM     33  O   UNL     1       9.208  11.033   9.303  0.00  0.00    +0.000 OA
BRANCH  33  34
ATOM     34  C   UNL     1       9.989   9.896   8.930  0.00  0.00    +0.000 C 
BRANCH  34  35
ATOM     35  C   UNL     1       9.098   8.777   8.387  0.00  0.00    +0.000 C 
ATOM     36  F   UNL     1       9.170   8.774   7.029  0.00  0.00    +0.000 F 
ATOM     37  F   UNL     1       9.587   7.575   8.796  0.00  0.00    +0.000 F 
ATOM     38  C   UNL     1       7.647   8.888   8.806  0.00  0.00    +0.000 C 
ENDBRANCH  34  35
ENDBRANCH  33  34
ENDBRANCH  32  33
ENDBRANCH   8  32
TORSDOF 10
ENDMDL
MODEL 2
REMARK VINA RESULT:    -6.488      4.084      9.013
REMARK INTER + INTRA:         -12.010
REMARK INTER:                  -9.788
REMARK INTRA:                  -2.222
REMARK UNBOUND:                -1.728
REMARK  Name = 
REMARK  12 active torsions:
REMARK  status: ('A' for Active; 'I' for Inactive)
REMARK    1  A    between atoms: C_1  and  C_2
REMARK    2  A    between atoms: C_2  and  N_3
REMARK    3  A    between atoms: N_3  and  C_4
REMARK    4  A    between atoms: C_4  and  C_5
REMARK    5  A    between atoms: C_13  and  C_15
REMARK    6  A    between atoms: C_15  and  N_16
REMARK    7  A    between atoms: C_21  and  C_23
REMARK    8  A    between atoms: N_29  and  C_32
REMARK    9  A    between atoms: C_32  and  O_33
REMARK   10  A    between atoms: O_33  and  C_34
REMARK   11  A    between atoms: C_34  and  C_35
REMARK   12  A    between atoms: C_35  and  C_38
REMARK                            x       y       z     vdW  Elec       q    Type
REMARK                         _______ _______ _______ _____ _____    ______ ____
ROOT
ATOM      1  N   UNL     1      11.196  10.738   5.553  0.00  0.00    +0.000 N 
ATOM      2  C   UNL     1      10.266  10.630   6.589  0.00  0.00    +0.000 A 
ATOM      3  C   UNL     1       9.584  11.827   6.655  0.00  0.00    +0.000 A 
ATOM      4  C   UNL     1       8.563  11.907   7.547  0.00  0.00    +0.000 A 
ATOM      5  N   UNL     1       8.259  10.861   8.343  0.00  0.00    +0.000 NA
ATOM      6  C   UNL     1       9.007   9.726   8.223  0.00  0.00    +0.000 A 
ATOM      7  N   UNL     1      10.024   9.553   7.345  0.00  0.00    +0.000 NA
ATOM      8  N   UNL     1      10.125  12.711   5.717  0.00  0.00    +0.000 N 
ATOM      9  C   UNL     1      11.117  12.025   4.991  0.00  0.00    +0.000 A 
ATOM     10  O   UNL     1      11.740  12.458   4.036  0.00  0.00    +0.000 OA
ENDROOT
BRANCH   6  11
ATOM     11  C   UNL     1       8.660   8.608   9.128  0.00  0.00    +0.000 A 
ATOM     12  C   UNL     1       7.370   8.497   9.691  0.00  0.00    +0.000 A 
ATOM     13  C   UNL     1       7.025   7.447  10.548  0.00  0.00    +0.000 A 
ATOM     14  C   UNL     1       7.966   6.475  10.866  0.00  0.00    +0.000 A 
ATOM     15  C   UNL     1       9.248   6.557  10.330  0.00  0.00    +0.000 A 
ATOM     16  C   UNL     1       9.589   7.610   9.473  0.00  0.00    +0.000 A 
ENDBRANCH   6  11
BRANCH   1  17
ATOM     17  C   UNL     1      12.085   9.683   5.136  0.00  0.00    +0.000 C 
BRANCH  17  19
ATOM     18  N   UNL     1      13.520   8.396   6.787  0.00  0.00    +0.000 N 
ATOM     19  C   UNL     1      13.280   9.589   6.098  0.00  0.00    +0.000 C 
ATOM     20  O   UNL     1      14.010  10.577   6.214  0.00  0.00    +0.000 OA
BRANCH  18  22
ATOM     21  C   UNL     1      14.331   8.154   9.244  0.00  0.00    +0.000 C 
ATOM     22  C   UNL     1      14.622   8.245   7.753  0.00  0.00    +0.000 C 
ENDBRANCH  18  22
BRANCH  18  23
ATOM     23  C   UNL     1      12.607   7.246   6.731  0.00  0.00    +0.000 C 
BRANCH  23  24
ATOM     24  C   UNL     1      13.118   6.043   5.975  0.00  0.00    +0.000 A 
ATOM     25  C   UNL     1      12.996   4.781   6.578  0.00  0.00    +0.000 A 
ATOM     26  F   UNL     1      12.507   4.689   7.823  0.00  0.00    +0.000 F 
ATOM     27  C   UNL     1      13.355   3.610   5.913  0.00  0.00    +0.000 A 
ATOM     28  C   UNL     1      13.861   3.684   4.619  0.00  0.00    +0.000 A 
ATOM     29  C   UNL     1      14.034   4.932   4.028  0.00  0.00    +0.000 A 
ATOM     30  F   UNL     1      14.532   5.005   2.788  0.00  0.00    +0.000 F 
ATOM     31  C   UNL     1      13.683   6.105   4.695  0.00  0.00    +0.000 A 
ENDBRANCH  23  24
ENDBRANCH  18  23
ENDBRANCH  17  19
ENDBRANCH   1  17
BRANCH   8  32
ATOM     32  C   UNL     1       9.665  14.027   5.395  0.00  0.00    +0.000 C 
BRANCH  32  33
ATOM     33  O   UNL     1       8.325  13.958   4.930  0.00  0.00    +0.000 OA
BRANCH  33  34
ATOM     34  C   UNL     1       8.198  14.404   3.577  0.00  0.00    +0.000 C 
BRANCH  34  35
ATOM     35  C   UNL     1       8.016  13.218   2.628  0.00  0.00    +0.000 C 
ATOM     36  F   UNL     1       7.696  12.114   3.355  0.00  0.00    +0.000 F 
ATOM     37  F   UNL     1       6.954  13.455   1.812  0.00  0.00    +0.000 F 
ATOM     38  C   UNL     1       9.234  12.916   1.779  0.00  0.00    +0.000 C 
ENDBRANCH  34  35
ENDBRANCH  33  34
ENDBRANCH  32  33
ENDBRANCH   8  32
TORSDOF 10
ENDMDL
MODEL 3
REMARK VINA RESULT:    -6.470      2.816      6.447
REMARK INTER + INTRA:         -11.980
REMARK INTER:                 -10.023
REMARK INTRA:                  -1.957
REMARK UNBOUND:                -1.728
REMARK  Name = 
REMARK  12 active torsions:
REMARK  status: ('A' for Active; 'I' for Inactive)
REMARK    1  A    between atoms: C_1  and  C_2
REMARK    2  A    between atoms: C_2  and  N_3
REMARK    3  A    between atoms: N_3  and  C_4
REMARK    4  A    between atoms: C_4  and  C_5
REMARK    5  A    between atoms: C_13  and  C_15
REMARK    6  A    between atoms: C_15  and  N_16
REMARK    7  A    between atoms: C_21  and  C_23
REMARK    8  A    between atoms: N_29  and  C_32
REMARK    9  A    between atoms: C_32  and  O_33
REMARK   10  A    between atoms: O_33  and  C_34
REMARK   11  A    between atoms: C_34  and  C_35
REMARK   12  A    between atoms: C_35  and  C_38
REMARK                            x       y       z     vdW  Elec       q    Type
REMARK                         _______ _______ _______ _____ _____    ______ ____
ROOT
ATOM      1  N   UNL     1       7.104  12.826   5.297  0.00  0.00    +0.000 N 
ATOM      2  C   UNL     1       7.916  12.994   4.174  0.00  0.00    +0.000 A 
ATOM      3  C   UNL     1       9.146  12.444   4.470  0.00  0.00    +0.000 A 
ATOM      4  C   UNL     1      10.068  12.422   3.474  0.00  0.00    +0.000 A 
ATOM      5  N   UNL     1       9.786  12.941   2.261  0.00  0.00    +0.000 NA
ATOM      6  C   UNL     1       8.550  13.487   2.070  0.00  0.00    +0.000 A 
ATOM      7  N   UNL     1       7.565  13.528   2.998  0.00  0.00    +0.000 NA
ATOM      8  N   UNL     1       9.136  11.995   5.795  0.00  0.00    +0.000 N 
ATOM      9  C   UNL     1       7.843  12.197   6.315  0.00  0.00    +0.000 A 
ATOM     10  O   UNL     1       7.447  11.847   7.413  0.00  0.00    +0.000 OA
ENDROOT
BRANCH   6  11
ATOM     11  C   UNL     1       8.285  14.068   0.735  0.00  0.00    +0.000 A 
ATOM     12  C   UNL     1       9.279  14.796   0.045  0.00  0.00    +0.000 A 
ATOM     13  C   UNL     1       9.045  15.351  -1.217  0.00  0.00    +0.000 A 
ATOM     14  C   UNL     1       7.806  15.193  -1.825  0.00  0.00    +0.000 A 
ATOM     15  C   UNL     1       6.803  14.484  -1.170  0.00  0.00    +0.000 A 
ATOM     16  C   UNL     1       7.041  13.929   0.093  0.00  0.00    +0.000 A 
ENDBRANCH   6  11
BRANCH   1  17
ATOM     17  C   UNL     1       5.724  13.235   5.380  0.00  0.00    +0.000 C 
BRANCH  17  19
ATOM     18  N   UNL     1       4.846  14.752   7.215  0.00  0.00    +0.000 N 
ATOM     19  C   UNL     1       5.621  14.610   6.060  0.00  0.00    +0.000 C 
ATOM     20  O   UNL     1       6.252  15.549   5.569  0.00  0.00    +0.000 OA
BRANCH  18  22
ATOM     21  C   UNL     1       4.990  16.182   9.380  0.00  0.00    +0.000 C 
ATOM     22  C   UNL     1       4.670  16.045   7.898  0.00  0.00    +0.000 C 
ENDBRANCH  18  22
BRANCH  18  23
ATOM     23  C   UNL     1       4.015  13.668   7.757  0.00  0.00    +0.000 C 
BRANCH  23  24
ATOM     24  C   UNL     1       2.554  13.714   7.379  0.00  0.00    +0.000 A 
ATOM     25  C   UNL     1       1.617  13.980   8.390  0.00  0.00    +0.000 A 
ATOM     26  F   UNL     1       2.033  14.107   9.658  0.00  0.00    +0.000 F 
ATOM     27  C   UNL     1       0.259  14.134   8.114  0.00  0.00    +0.000 A 
ATOM     28  C   UNL     1      -0.191  14.009   6.803  0.00  0.00    +0.000 A 
ATOM     29  C   UNL     1       0.719  13.696   5.799  0.00  0.00    +0.000 A 
ATOM     30  F   UNL     1       0.285  13.563   4.540  0.00  0.00    +0.000 F 
ATOM     31  C   UNL     1       2.076  13.534   6.075  0.00  0.00    +0.000 A 
ENDBRANCH  23  24
ENDBRANCH  18  23
ENDBRANCH  17  19
ENDBRANCH   1  17
BRANCH   8  32
ATOM     32  C   UNL     1      10.173  11.290   6.481  0.00  0.00    +0.000 C 
BRANCH  32  33
ATOM     33  O   UNL     1       9.921   9.894   6.413  0.00  0.00    +0.000 OA
BRANCH  33  34
ATOM     34  C   UNL     1      10.343   9.209   7.595  0.00  0.00    +0.000 C 
BRANCH  34  35
ATOM     35  C   UNL     1       9.149   8.892   8.496  0.00  0.00    +0.000 C 
ATOM     36  F   UNL     1       8.872   9.980   9.263  0.00  0.00    +0.000 F 
ATOM     37  F   UNL     1       8.048   8.680   7.726  0.00  0.00    +0.000 F 
ATOM     38  C   UNL     1       9.358   7.692   9.397  0.00  0.00    +0.000 C 
ENDBRANCH  34  35
ENDBRANCH  33  34
ENDBRANCH  32  33
ENDBRANCH   8  32
TORSDOF 10
ENDMDL
MODEL 4
REMARK VINA RESULT:    -6.401      8.646     12.883
REMARK INTER + INTRA:         -11.871
REMARK INTER:                  -9.097
REMARK INTRA:                  -2.775
REMARK UNBOUND:                -1.728
REMARK  Name = 
REMARK  12 active torsions:
REMARK  status: ('A' for Active; 'I' for Inactive)
REMARK    1  A    between atoms: C_1  and  C_2
REMARK    2  A    between atoms: C_2  and  N_3
REMARK    3  A    between atoms: N_3  and  C_4
REMARK    4  A    between atoms: C_4  and  C_5
REMARK    5  A    between atoms: C_13  and  C_15
REMARK    6  A    between atoms: C_15  and  N_16
REMARK    7  A    between atoms: C_21  and  C_23
REMARK    8  A    between atoms: N_29  and  C_32
REMARK    9  A    between atoms: C_32  and  O_33
REMARK   10  A    between atoms: O_33  and  C_34
REMARK   11  A    between atoms: C_34  and  C_35
REMARK   12  A    between atoms: C_35  and  C_38
REMARK                            x       y       z     vdW  Elec       q    Type
REMARK                         _______ _______ _______ _____ _____    ______ ____
ROOT
ATOM      1  N   UNL     1       3.422   9.587  15.745  0.00  0.00    +0.000 N 
ATOM      2  C   UNL     1       3.215   8.206  15.738  0.00  0.00    +0.000 A 
ATOM      3  C   UNL     1       2.289   7.925  16.720  0.00  0.00    +0.000 A 
ATOM      4  C   UNL     1       1.875   6.636  16.827  0.00  0.00    +0.000 A 
ATOM      5  N   UNL     1       2.376   5.682  16.016  0.00  0.00    +0.000 NA
ATOM      6  C   UNL     1       3.307   6.051  15.091  0.00  0.00    +0.000 A 
ATOM      7  N   UNL     1       3.757   7.315  14.900  0.00  0.00    +0.000 NA
ATOM      8  N   UNL     1       1.965   9.108  17.392  0.00  0.00    +0.000 N 
ATOM      9  C   UNL     1       2.645  10.168  16.762  0.00  0.00    +0.000 A 
ATOM     10  O   UNL     1       2.533  11.353  17.028  0.00  0.00    +0.000 OA
ENDROOT
BRANCH   6  11
ATOM     11  C   UNL     1       3.851   4.973  14.235  0.00  0.00    +0.000 A 
ATOM     12  C   UNL     1       3.599   4.945  12.846  0.00  0.00    +0.000 A 
ATOM     13  C   UNL     1       4.106   3.935  12.024  0.00  0.00    +0.000 A 
ATOM     14  C   UNL     1       4.883   2.921  12.571  0.00  0.00    +0.000 A 
ATOM     15  C   UNL     1       5.147   2.917  13.937  0.00  0.00    +0.000 A 
ATOM     16  C   UNL     1       4.638   3.930  14.757  0.00  0.00    +0.000 A 
ENDBRANCH   6  11
BRANCH   1  17
ATOM     17  C   UNL     1       4.296  10.290  14.839  0.00  0.00    +0.000 C 
BRANCH  17  19
ATOM     18  N   UNL     1       4.268  10.652  12.327  0.00  0.00    +0.000 N 
ATOM     19  C   UNL     1       3.555  10.605  13.529  0.00  0.00    +0.000 C 
ATOM     20  O   UNL     1       2.336  10.787  13.581  0.00  0.00    +0.000 OA
BRANCH  18  22
ATOM     21  C   UNL     1       3.384  12.437  10.658  0.00  0.00    +0.000 C 
ATOM     22  C   UNL     1       3.633  10.984  11.040  0.00  0.00    +0.000 C 
ENDBRANCH  18  22
BRANCH  18  23
ATOM     23  C   UNL     1       5.731  10.531  12.262  0.00  0.00    +0.000 C 
BRANCH  23  24
ATOM     24  C   UNL     1       6.256   9.201  11.779  0.00  0.00    +0.000 A 
ATOM     25  C   UNL     1       6.861   9.148  10.514  0.00  0.00    +0.000 A 
ATOM     26  F   UNL     1       6.887  10.247   9.748  0.00  0.00    +0.000 F 
ATOM     27  C   UNL     1       7.456   7.983  10.031  0.00  0.00    +0.000 A 
ATOM     28  C   UNL     1       7.443   6.832  10.813  0.00  0.00    +0.000 A 
ATOM     29  C   UNL     1       6.802   6.856  12.047  0.00  0.00    +0.000 A 
ATOM     30  F   UNL     1       6.779   5.747  12.795  0.00  0.00    +0.000 F 
ATOM     31  C   UNL     1       6.200   8.019  12.529  0.00  0.00    +0.000 A 
ENDBRANCH  23  24
ENDBRANCH  18  23
ENDBRANCH  17  19
ENDBRANCH   1  17
BRANCH   8  32
ATOM     32  C   UNL     1       0.988   9.284  18.421  0.00  0.00    +0.000 C 
BRANCH  32  33
ATOM     33  O   UNL     1      -0.276   9.554  17.833  0.00  0.00    +0.000 OA
BRANCH  33  34
ATOM     34  C   UNL     1      -0.728  10.883  18.107  0.00  0.00    +0.000 C 
BRANCH  34  35
ATOM     35  C   UNL     1      -1.538  11.436  16.934  0.00  0.00    +0.000 C 
ATOM     36  F   UNL     1      -2.543  10.567  16.642  0.00  0.00    +0.000 F 
ATOM     37  F   UNL     1      -2.138  12.597  17.310  0.00  0.00    +0.000 F 
ATOM     38  C   UNL     1      -0.720  11.685  15.683  0.00  0.00    +0.000 C 
ENDBRANCH  34  35
ENDBRANCH  33  34
ENDBRANCH  32  33
ENDBRANCH   8  32
TORSDOF 10
ENDMDL
MODEL 5
REMARK VINA RESULT:    -6.401      7.822     12.265
REMARK INTER + INTRA:         -11.871
REMARK INTER:                  -8.937
REMARK INTRA:                  -2.935
REMARK UNBOUND:                -1.728
REMARK  Name = 
REMARK  12 active torsions:
REMARK  status: ('A' for Active; 'I' for Inactive)
REMARK    1  A    between atoms: C_1  and  C_2
REMARK    2  A    between atoms: C_2  and  N_3
REMARK    3  A    between atoms: N_3  and  C_4
REMARK    4  A    between atoms: C_4  and  C_5
REMARK    5  A    between atoms: C_13  and  C_15
REMARK    6  A    between atoms: C_15  and  N_16
REMARK    7  A    between atoms: C_21  and  C_23
REMARK    8  A    between atoms: N_29  and  C_32
REMARK    9  A    between atoms: C_32  and  O_33
REMARK   10  A    between atoms: O_33  and  C_34
REMARK   11  A    between atoms: C_34  and  C_35
REMARK   12  A    between atoms: C_35  and  C_38
REMARK                            x       y       z     vdW  Elec       q    Type
REMARK                         _______ _______ _______ _____ _____    ______ ____
ROOT
ATOM      1  N   UNL     1      -2.239  18.551   4.433  0.00  0.00    +0.000 N 
ATOM      2  C   UNL     1      -0.919  18.111   4.553  0.00  0.00    +0.000 A 
ATOM      3  C   UNL     1      -0.103  19.212   4.394  0.00  0.00    +0.000 A 
ATOM      4  C   UNL     1       1.231  19.020   4.562  0.00  0.00    +0.000 A 
ATOM      5  N   UNL     1       1.721  17.797   4.847  0.00  0.00    +0.000 NA
ATOM      6  C   UNL     1       0.838  16.763   4.960  0.00  0.00    +0.000 A 
ATOM      7  N   UNL     1      -0.506  16.869   4.833  0.00  0.00    +0.000 NA
ATOM      8  N   UNL     1      -0.895  20.327   4.105  0.00  0.00    +0.000 N 
ATOM      9  C   UNL     1      -2.245  19.931   4.163  0.00  0.00    +0.000 A 
ATOM     10  O   UNL     1      -3.215  20.662   4.048  0.00  0.00    +0.000 OA
ENDROOT
BRANCH   6  11
ATOM     11  C   UNL     1       1.415  15.431   5.250  0.00  0.00    +0.000 A 
ATOM     12  C   UNL     1       2.695  15.300   5.830  0.00  0.00    +0.000 A 
ATOM     13  C   UNL     1       3.254  14.049   6.111  0.00  0.00    +0.000 A 
ATOM     14  C   UNL     1       2.544  12.891   5.817  0.00  0.00    +0.000 A 
ATOM     15  C   UNL     1       1.281  12.986   5.241  0.00  0.00    +0.000 A 
ATOM     16  C   UNL     1       0.724  14.239   4.962  0.00  0.00    +0.000 A 
ENDBRANCH   6  11
BRANCH   1  17
ATOM     17  C   UNL     1      -3.400  17.709   4.573  0.00  0.00    +0.000 C 
BRANCH  17  19
ATOM     18  N   UNL     1      -3.967  17.323   7.017  0.00  0.00    +0.000 N 
ATOM     19  C   UNL     1      -4.166  18.075   5.854  0.00  0.00    +0.000 C 
ATOM     20  O   UNL     1      -4.925  19.047   5.819  0.00  0.00    +0.000 OA
BRANCH  18  22
ATOM     21  C   UNL     1      -4.924  16.476   9.279  0.00  0.00    +0.000 C 
ATOM     22  C   UNL     1      -4.694  17.592   8.269  0.00  0.00    +0.000 C 
ENDBRANCH  18  22
BRANCH  18  23
ATOM     23  C   UNL     1      -3.141  16.108   7.049  0.00  0.00    +0.000 C 
BRANCH  23  24
ATOM     24  C   UNL     1      -1.815  16.239   7.759  0.00  0.00    +0.000 A 
ATOM     25  C   UNL     1      -1.051  15.077   7.953  0.00  0.00    +0.000 A 
ATOM     26  F   UNL     1      -1.547  13.890   7.577  0.00  0.00    +0.000 F 
ATOM     27  C   UNL     1       0.224  15.120   8.515  0.00  0.00    +0.000 A 
ATOM     28  C   UNL     1       0.758  16.344   8.909  0.00  0.00    +0.000 A 
ATOM     29  C   UNL     1      -0.008  17.496   8.769  0.00  0.00    +0.000 A 
ATOM     30  F   UNL     1       0.499  18.672   9.159  0.00  0.00    +0.000 F 
ATOM     31  C   UNL     1      -1.287  17.454   8.215  0.00  0.00    +0.000 A 
ENDBRANCH  23  24
ENDBRANCH  18  23
ENDBRANCH  17  19
ENDBRANCH   1  17
BRANCH   8  32
ATOM     32  C   UNL     1      -0.465  21.682   3.948  0.00  0.00    +0.000 C 
BRANCH  32  33
ATOM     33  O   UNL     1      -0.574  22.058   2.584  0.00  0.00    +0.000 OA
BRANCH  33  34
ATOM     34  C   UNL     1       0.592  21.714   1.831  0.00  0.00    +0.000 C 
BRANCH  34  35
ATOM     35  C   UNL     1       0.281  20.610   0.819  0.00  0.00    +0.000 C 
ATOM     36  F   UNL     1       0.929  19.474   1.191  0.00  0.00    +0.000 F 
ATOM     37  F   UNL     1      -1.047  20.321   0.864  0.00  0.00    +0.000 F 
ATOM     38  C   UNL     1       0.664  20.955  -0.605  0.00  0.00    +0.000 C 
ENDBRANCH  34  35
ENDBRANCH  33  34
ENDBRANCH  32  33
ENDBRANCH   8  32
TORSDOF 10
ENDMDL
MODEL 6
REMARK VINA RESULT:    -6.391      3.696      6.720
REMARK INTER + INTRA:         -11.856
REMARK INTER:                  -8.915
REMARK INTRA:                  -2.941
REMARK UNBOUND:                -1.728
REMARK  Name = 
REMARK  12 active torsions:
REMARK  status: ('A' for Active; 'I' for Inactive)
REMARK    1  A    between atoms: C_1  and  C_2
REMARK    2  A    between atoms: C_2  and  N_3
REMARK    3  A    between atoms: N_3  and  C_4
REMARK    4  A    between atoms: C_4  and  C_5
REMARK    5  A    between atoms: C_13  and  C_15
REMARK    6  A    between atoms: C_15  and  N_16
REMARK    7  A    between atoms: C_21  and  C_23
REMARK    8  A    between atoms: N_29  and  C_32
REMARK    9  A    between atoms: C_32  and  O_33
REMARK   10  A    between atoms: O_33  and  C_34
REMARK   11  A    between atoms: C_34  and  C_35
REMARK   12  A    between atoms: C_35  and  C_38
REMARK                            x       y       z     vdW  Elec       q    Type
REMARK                         _______ _______ _______ _____ _____    ______ ____
ROOT
ATOM      1  N   UNL     1       7.059  13.436   8.811  0.00  0.00    +0.000 N 
ATOM      2  C   UNL     1       6.380  13.453   7.591  0.00  0.00    +0.000 A 
ATOM      3  C   UNL     1       7.273  13.058   6.618  0.00  0.00    +0.000 A 
ATOM      4  C   UNL     1       6.790  12.920   5.356  0.00  0.00    +0.000 A 
ATOM      5  N   UNL     1       5.497  13.186   5.081  0.00  0.00    +0.000 NA
ATOM      6  C   UNL     1       4.694  13.595   6.105  0.00  0.00    +0.000 A 
ATOM      7  N   UNL     1       5.087  13.735   7.394  0.00  0.00    +0.000 NA
ATOM      8  N   UNL     1       8.527  12.861   7.204  0.00  0.00    +0.000 N 
ATOM      9  C   UNL     1       8.397  13.060   8.592  0.00  0.00    +0.000 A 
ATOM     10  O   UNL     1       9.267  12.890   9.429  0.00  0.00    +0.000 OA
ENDROOT
BRANCH   6  11
ATOM     11  C   UNL     1       3.287  13.901   5.760  0.00  0.00    +0.000 A 
ATOM     12  C   UNL     1       2.386  12.877   5.398  0.00  0.00    +0.000 A 
ATOM     13  C   UNL     1       1.053  13.148   5.071  0.00  0.00    +0.000 A 
ATOM     14  C   UNL     1       0.586  14.456   5.095  0.00  0.00    +0.000 A 
ATOM     15  C   UNL     1       1.451  15.489   5.444  0.00  0.00    +0.000 A 
ATOM     16  C   UNL     1       2.783  15.214   5.772  0.00  0.00    +0.000 A 
ENDBRANCH   6  11
BRANCH   1  17
ATOM     17  C   UNL     1       6.465  13.751  10.086  0.00  0.00    +0.000 C 
BRANCH  17  19
ATOM     18  N   UNL     1       4.612  12.657  11.433  0.00  0.00    +0.000 N 
ATOM     19  C   UNL     1       5.774  12.507  10.669  0.00  0.00    +0.000 C 
ATOM     20  O   UNL     1       6.264  11.403  10.421  0.00  0.00    +0.000 OA
BRANCH  18  22
ATOM     21  C   UNL     1       2.952  11.738  13.208  0.00  0.00    +0.000 C 
ATOM     22  C   UNL     1       3.919  11.515  12.054  0.00  0.00    +0.000 C 
ENDBRANCH  18  22
BRANCH  18  23
ATOM     23  C   UNL     1       4.073  13.969  11.815  0.00  0.00    +0.000 C 
BRANCH  23  24
ATOM     24  C   UNL     1       3.044  14.551  10.875  0.00  0.00    +0.000 A 
ATOM     25  C   UNL     1       2.865  15.943  10.870  0.00  0.00    +0.000 A 
ATOM     26  F   UNL     1       3.546  16.700  11.742  0.00  0.00    +0.000 F 
ATOM     27  C   UNL     1       2.005  16.571   9.970  0.00  0.00    +0.000 A 
ATOM     28  C   UNL     1       1.292  15.803   9.054  0.00  0.00    +0.000 A 
ATOM     29  C   UNL     1       1.421  14.419   9.082  0.00  0.00    +0.000 A 
ATOM     30  F   UNL     1       0.726  13.678   8.210  0.00  0.00    +0.000 F 
ATOM     31  C   UNL     1       2.275  13.788   9.987  0.00  0.00    +0.000 A 
ENDBRANCH  23  24
ENDBRANCH  18  23
ENDBRANCH  17  19
ENDBRANCH   1  17
BRANCH   8  32
ATOM     32  C   UNL     1       9.714  12.371   6.575  0.00  0.00    +0.000 C 
BRANCH  32  33
ATOM     33  O   UNL     1       9.545  10.999   6.250  0.00  0.00    +0.000 OA
BRANCH  33  34
ATOM     34  C   UNL     1      10.070  10.134   7.260  0.00  0.00    +0.000 C 
BRANCH  34  35
ATOM     35  C   UNL     1       9.185   8.899   7.433  0.00  0.00    +0.000 C 
ATOM     36  F   UNL     1       8.739   8.499   6.213  0.00  0.00    +0.000 F 
ATOM     37  F   UNL     1       9.935   7.873   7.919  0.00  0.00    +0.000 F 
ATOM     38  C   UNL     1       7.996   9.117   8.347  0.00  0.00    +0.000 C 
ENDBRANCH  34  35
ENDBRANCH  33  34
ENDBRANCH  32  33
ENDBRANCH   8  32
TORSDOF 10
ENDMDL
MODEL 7
REMARK VINA RESULT:    -6.344      2.974      6.520
REMARK INTER + INTRA:         -11.780
REMARK INTER:                 -10.107
REMARK INTRA:                  -1.673
REMARK UNBOUND:                -1.728
REMARK  Name = 
REMARK  12 active torsions:
REMARK  status: ('A' for Active; 'I' for Inactive)
REMARK    1  A    between atoms: C_1  and  C_2
REMARK    2  A    between atoms: C_2  and  N_3
REMARK    3  A    between atoms: N_3  and  C_4
REMARK    4  A    between atoms: C_4  and  C_5
REMARK    5  A    between atoms: C_13  and  C_15
REMARK    6  A    between atoms: C_15  and  N_16
REMARK    7  A    between atoms: C_21  and  C_23
REMARK    8  A    between atoms: N_29  and  C_32
REMARK    9  A    between atoms: C_32  and  O_33
REMARK   10  A    between atoms: O_33  and  C_34
REMARK   11  A    between atoms: C_34  and  C_35
REMARK   12  A    between atoms: C_35  and  C_38
REMARK                            x       y       z     vdW  Elec       q    Type
REMARK                         _______ _______ _______ _____ _____    ______ ____
ROOT
ATOM      1  N   UNL     1       7.193  12.810   5.292  0.00  0.00    +0.000 N 
ATOM      2  C   UNL     1       8.008  13.003   4.175  0.00  0.00    +0.000 A 
ATOM      3  C   UNL     1       9.252  12.492   4.482  0.00  0.00    +0.000 A 
ATOM      4  C   UNL     1      10.182  12.498   3.492  0.00  0.00    +0.000 A 
ATOM      5  N   UNL     1       9.893  13.007   2.277  0.00  0.00    +0.000 NA
ATOM      6  C   UNL     1       8.642  13.512   2.075  0.00  0.00    +0.000 A 
ATOM      7  N   UNL     1       7.649  13.524   2.996  0.00  0.00    +0.000 NA
ATOM      8  N   UNL     1       9.246  12.045   5.807  0.00  0.00    +0.000 N 
ATOM      9  C   UNL     1       7.943  12.206   6.317  0.00  0.00    +0.000 A 
ATOM     10  O   UNL     1       7.550  11.845   7.413  0.00  0.00    +0.000 OA
ENDROOT
BRANCH   6  11
ATOM     11  C   UNL     1       8.369  14.084   0.737  0.00  0.00    +0.000 A 
ATOM     12  C   UNL     1       7.110  13.925   0.119  0.00  0.00    +0.000 A 
ATOM     13  C   UNL     1       6.835  14.459  -1.144  0.00  0.00    +0.000 A 
ATOM     14  C   UNL     1       7.817  15.168  -1.825  0.00  0.00    +0.000 A 
ATOM     15  C   UNL     1       9.070  15.340  -1.244  0.00  0.00    +0.000 A 
ATOM     16  C   UNL     1       9.342  14.804   0.020  0.00  0.00    +0.000 A 
ENDBRANCH   6  11
BRANCH   1  17
ATOM     17  C   UNL     1       5.800  13.176   5.364  0.00  0.00    +0.000 C 
BRANCH  17  19
ATOM     18  N   UNL     1       4.873  14.790   7.089  0.00  0.00    +0.000 N 
ATOM     19  C   UNL     1       5.655  14.591   5.946  0.00  0.00    +0.000 C 
ATOM     20  O   UNL     1       6.259  15.511   5.391  0.00  0.00    +0.000 OA
BRANCH  18  22
ATOM     21  C   UNL     1       4.628  16.298   9.192  0.00  0.00    +0.000 C 
ATOM     22  C   UNL     1       4.657  16.123   7.680  0.00  0.00    +0.000 C 
ENDBRANCH  18  22
BRANCH  18  23
ATOM     23  C   UNL     1       4.072  13.723   7.704  0.00  0.00    +0.000 C 
BRANCH  23  24
ATOM     24  C   UNL     1       2.608  13.712   7.338  0.00  0.00    +0.000 A 
ATOM     25  C   UNL     1       1.668  13.898   8.364  0.00  0.00    +0.000 A 
ATOM     26  F   UNL     1       2.088  14.003   9.633  0.00  0.00    +0.000 F 
ATOM     27  C   UNL     1       0.302  13.996   8.103  0.00  0.00    +0.000 A 
ATOM     28  C   UNL     1      -0.153  13.894   6.791  0.00  0.00    +0.000 A 
ATOM     29  C   UNL     1       0.762  13.658   5.771  0.00  0.00    +0.000 A 
ATOM     30  F   UNL     1       0.324  13.547   4.511  0.00  0.00    +0.000 F 
ATOM     31  C   UNL     1       2.128  13.552   6.032  0.00  0.00    +0.000 A 
ENDBRANCH  23  24
ENDBRANCH  18  23
ENDBRANCH  17  19
ENDBRANCH   1  17
BRANCH   8  32
ATOM     32  C   UNL     1      10.300  11.373   6.502  0.00  0.00    +0.000 C 
BRANCH  32  33
ATOM     33  O   UNL     1      10.251   9.985   6.208  0.00  0.00    +0.000 OA
BRANCH  33  34
ATOM     34  C   UNL     1      11.470   9.317   6.543  0.00  0.00    +0.000 C 
BRANCH  34  35
ATOM     35  C   UNL     1      11.454   7.871   6.046  0.00  0.00    +0.000 C 
ATOM     36  F   UNL     1      10.186   7.544   5.678  0.00  0.00    +0.000 F 
ATOM     37  F   UNL     1      12.212   7.773   4.922  0.00  0.00    +0.000 F 
ATOM     38  C   UNL     1      11.948   6.865   7.064  0.00  0.00    +0.000 C 
ENDBRANCH  34  35
ENDBRANCH  33  34
ENDBRANCH  32  33
ENDBRANCH   8  32
TORSDOF 10
ENDMDL
MODEL 8
REMARK VINA RESULT:    -6.300      2.346      5.493
REMARK INTER + INTRA:         -11.711
REMARK INTER:                  -9.497
REMARK INTRA:                  -2.214
REMARK UNBOUND:                -1.728
REMARK  Name = 
REMARK  12 active torsions:
REMARK  status: ('A' for Active; 'I' for Inactive)
REMARK    1  A    between atoms: C_1  and  C_2
REMARK    2  A    between atoms: C_2  and  N_3
REMARK    3  A    between atoms: N_3  and  C_4
REMARK    4  A    between atoms: C_4  and  C_5
REMARK    5  A    between atoms: C_13  and  C_15
REMARK    6  A    between atoms: C_15  and  N_16
REMARK    7  A    between atoms: C_21  and  C_23
REMARK    8  A    between atoms: N_29  and  C_32
REMARK    9  A    between atoms: C_32  and  O_33
REMARK   10  A    between atoms: O_33  and  C_34
REMARK   11  A    between atoms: C_34  and  C_35
REMARK   12  A    between atoms: C_35  and  C_38
REMARK                            x       y       z     vdW  Elec       q    Type
REMARK                         _______ _______ _______ _____ _____    ______ ____
ROOT
ATOM      1  N   UNL     1       8.279  12.268   5.649  0.00  0.00    +0.000 N 
ATOM      2  C   UNL     1       8.581  12.829   4.406  0.00  0.00    +0.000 A 
ATOM      3  C   UNL     1       9.893  12.513   4.121  0.00  0.00    +0.000 A 
ATOM      4  C   UNL     1      10.369  12.892   2.907  0.00  0.00    +0.000 A 
ATOM      5  N   UNL     1       9.587  13.568   2.040  0.00  0.00    +0.000 NA
ATOM      6  C   UNL     1       8.310  13.857   2.421  0.00  0.00    +0.000 A 
ATOM      7  N   UNL     1       7.748  13.497   3.600  0.00  0.00    +0.000 NA
ATOM      8  N   UNL     1      10.439  11.819   5.205  0.00  0.00    +0.000 N 
ATOM      9  C   UNL     1       9.421  11.626   6.159  0.00  0.00    +0.000 A 
ATOM     10  O   UNL     1       9.515  10.986   7.192  0.00  0.00    +0.000 OA
ENDROOT
BRANCH   6  11
ATOM     11  C   UNL     1       7.489  14.621   1.454  0.00  0.00    +0.000 A 
ATOM     12  C   UNL     1       6.896  13.988   0.341  0.00  0.00    +0.000 A 
ATOM     13  C   UNL     1       6.117  14.695  -0.582  0.00  0.00    +0.000 A 
ATOM     14  C   UNL     1       5.912  16.059  -0.414  0.00  0.00    +0.000 A 
ATOM     15  C   UNL     1       6.487  16.713   0.671  0.00  0.00    +0.000 A 
ATOM     16  C   UNL     1       7.265  16.003   1.593  0.00  0.00    +0.000 A 
ENDBRANCH   6  11
BRANCH   1  17
ATOM     17  C   UNL     1       6.990  12.341   6.290  0.00  0.00    +0.000 C 
BRANCH  17  19
ATOM     18  N   UNL     1       6.293  14.655   7.067  0.00  0.00    +0.000 N 
ATOM     19  C   UNL     1       6.984  13.468   7.335  0.00  0.00    +0.000 C 
ATOM     20  O   UNL     1       7.577  13.276   8.399  0.00  0.00    +0.000 OA
BRANCH  18  22
ATOM     21  C   UNL     1       5.195  15.890   9.073  0.00  0.00    +0.000 C 
ATOM     22  C   UNL     1       6.275  15.791   8.005  0.00  0.00    +0.000 C 
ENDBRANCH  18  22
BRANCH  18  23
ATOM     23  C   UNL     1       5.663  14.935   5.770  0.00  0.00    +0.000 C 
BRANCH  23  24
ATOM     24  C   UNL     1       4.193  14.604   5.673  0.00  0.00    +0.000 A 
ATOM     25  C   UNL     1       3.268  15.649   5.826  0.00  0.00    +0.000 A 
ATOM     26  F   UNL     1       3.706  16.880   6.126  0.00  0.00    +0.000 F 
ATOM     27  C   UNL     1       1.898  15.450   5.659  0.00  0.00    +0.000 A 
ATOM     28  C   UNL     1       1.424  14.180   5.344  0.00  0.00    +0.000 A 
ATOM     29  C   UNL     1       2.325  13.125   5.239  0.00  0.00    +0.000 A 
ATOM     30  F   UNL     1       1.869  11.901   4.948  0.00  0.00    +0.000 F 
ATOM     31  C   UNL     1       3.695  13.321   5.414  0.00  0.00    +0.000 A 
ENDBRANCH  23  24
ENDBRANCH  18  23
ENDBRANCH  17  19
ENDBRANCH   1  17
BRANCH   8  32
ATOM     32  C   UNL     1      11.741  11.234   5.296  0.00  0.00    +0.000 C 
BRANCH  32  33
ATOM     33  O   UNL     1      11.715   9.930   4.735  0.00  0.00    +0.000 OA
BRANCH  33  34
ATOM     34  C   UNL     1      12.534   9.011   5.462  0.00  0.00    +0.000 C 
BRANCH  34  35
ATOM     35  C   UNL     1      11.684   8.132   6.380  0.00  0.00    +0.000 C 
ATOM     36  F   UNL     1      11.647   8.692   7.619  0.00  0.00    +0.000 F 
ATOM     37  F   UNL     1      10.400   8.121   5.931  0.00  0.00    +0.000 F 
ATOM     38  C   UNL     1      12.178   6.705   6.497  0.00  0.00    +0.000 C 
ENDBRANCH  34  35
ENDBRANCH  33  34
ENDBRANCH  32  33
ENDBRANCH   8  32
TORSDOF 10
ENDMDL
MODEL 9
REMARK VINA RESULT:    -6.288      3.701      7.180
REMARK INTER + INTRA:         -11.692
REMARK INTER:                  -8.498
REMARK INTRA:                  -3.195
REMARK UNBOUND:                -1.728
REMARK  Name = 
REMARK  12 active torsions:
REMARK  status: ('A' for Active; 'I' for Inactive)
REMARK    1  A    between atoms: C_1  and  C_2
REMARK    2  A    between atoms: C_2  and  N_3
REMARK    3  A    between atoms: N_3  and  C_4
REMARK    4  A    between atoms: C_4  and  C_5
REMARK    5  A    between atoms: C_13  and  C_15
REMARK    6  A    between atoms: C_15  and  N_16
REMARK    7  A    between atoms: C_21  and  C_23
REMARK    8  A    between atoms: N_29  and  C_32
REMARK    9  A    between atoms: C_32  and  O_33
REMARK   10  A    between atoms: O_33  and  C_34
REMARK   11  A    between atoms: C_34  and  C_35
REMARK   12  A    between atoms: C_35  and  C_38
REMARK                            x       y       z     vdW  Elec       q    Type
REMARK                         _______ _______ _______ _____ _____    ______ ____
ROOT
ATOM      1  N   UNL     1       6.740  14.238   8.750  0.00  0.00    +0.000 N 
ATOM      2  C   UNL     1       6.009  14.011   7.582  0.00  0.00    +0.000 A 
ATOM      3  C   UNL     1       6.798  13.248   6.746  0.00  0.00    +0.000 A 
ATOM      4  C   UNL     1       6.240  12.836   5.578  0.00  0.00    +0.000 A 
ATOM      5  N   UNL     1       4.978  13.187   5.256  0.00  0.00    +0.000 NA
ATOM      6  C   UNL     1       4.284  13.965   6.135  0.00  0.00    +0.000 A 
ATOM      7  N   UNL     1       4.754  14.400   7.329  0.00  0.00    +0.000 NA
ATOM      8  N   UNL     1       8.044  13.053   7.348  0.00  0.00    +0.000 N 
ATOM      9  C   UNL     1       8.008  13.641   8.628  0.00  0.00    +0.000 A 
ATOM     10  O   UNL     1       8.890  13.592   9.468  0.00  0.00    +0.000 OA
ENDROOT
BRANCH   6  11
ATOM     11  C   UNL     1       2.912  14.350   5.736  0.00  0.00    +0.000 A 
ATOM     12  C   UNL     1       1.989  13.388   5.274  0.00  0.00    +0.000 A 
ATOM     13  C   UNL     1       0.688  13.734   4.894  0.00  0.00    +0.000 A 
ATOM     14  C   UNL     1       0.275  15.059   4.966  0.00  0.00    +0.000 A 
ATOM     15  C   UNL     1       1.162  16.033   5.414  0.00  0.00    +0.000 A 
ATOM     16  C   UNL     1       2.463  15.683   5.794  0.00  0.00    +0.000 A 
ENDBRANCH   6  11
BRANCH   1  17
ATOM     17  C   UNL     1       6.253  14.968   9.893  0.00  0.00    +0.000 C 
BRANCH  17  19
ATOM     18  N   UNL     1       4.026  14.370  10.953  0.00  0.00    +0.000 N 
ATOM     19  C   UNL     1       5.376  14.056  10.767  0.00  0.00    +0.000 C 
ATOM     20  O   UNL     1       5.895  13.054  11.262  0.00  0.00    +0.000 OA
BRANCH  18  22
ATOM     21  C   UNL     1       2.767  14.046  13.203  0.00  0.00    +0.000 C 
ATOM     22  C   UNL     1       3.135  13.565  11.806  0.00  0.00    +0.000 C 
ENDBRANCH  18  22
BRANCH  18  23
ATOM     23  C   UNL     1       3.418  15.609  10.448  0.00  0.00    +0.000 C 
BRANCH  23  24
ATOM     24  C   UNL     1       2.034  15.465   9.863  0.00  0.00    +0.000 A 
ATOM     25  C   UNL     1       1.148  16.548   9.983  0.00  0.00    +0.000 A 
ATOM     26  F   UNL     1       1.524  17.634  10.672  0.00  0.00    +0.000 F 
ATOM     27  C   UNL     1      -0.114  16.536   9.391  0.00  0.00    +0.000 A 
ATOM     28  C   UNL     1      -0.521  15.418   8.669  0.00  0.00    +0.000 A 
ATOM     29  C   UNL     1       0.325  14.318   8.584  0.00  0.00    +0.000 A 
ATOM     30  F   UNL     1      -0.070  13.238   7.900  0.00  0.00    +0.000 F 
ATOM     31  C   UNL     1       1.585  14.325   9.182  0.00  0.00    +0.000 A 
ENDBRANCH  23  24
ENDBRANCH  18  23
ENDBRANCH  17  19
ENDBRANCH   1  17
BRANCH   8  32
ATOM     32  C   UNL     1       9.128  12.255   6.866  0.00  0.00    +0.000 C 
BRANCH  32  33
ATOM     33  O   UNL     1       9.785  12.939   5.809  0.00  0.00    +0.000 OA
BRANCH  33  34
ATOM     34  C   UNL     1       9.937  12.121   4.646  0.00  0.00    +0.000 C 
BRANCH  34  35
ATOM     35  C   UNL     1       9.349  12.811   3.414  0.00  0.00    +0.000 C 
ATOM     36  F   UNL     1      10.179  12.611   2.356  0.00  0.00    +0.000 F 
ATOM     37  F   UNL     1       8.169  12.217   3.088  0.00  0.00    +0.000 F 
ATOM     38  C   UNL     1       9.120  14.298   3.591  0.00  0.00    +0.000 C 
ENDBRANCH  34  35
ENDBRANCH  33  34
ENDBRANCH  32  33
ENDBRANCH   8  32
TORSDOF 10
ENDMDL
