MODEL 1
REMARK VINA RESULT:    -6.458      0.000      0.000
REMARK INTER + INTRA:         -11.748
REMARK INTER:                  -9.857
REMARK INTRA:                  -1.891
REMARK UNBOUND:                -1.891
REMARK  Name = 
REMARK  11 active torsions:
REMARK  status: ('A' for Active; 'I' for Inactive)
REMARK    1  A    between atoms: C_1  and  C_2
REMARK    2  A    between atoms: C_2  and  N_3
REMARK    3  A    between atoms: N_3  and  C_4
REMARK    4  A    between atoms: C_4  and  C_5
REMARK    5  A    between atoms: C_13  and  C_15
REMARK    6  A    between atoms: C_15  and  N_16
REMARK    7  A    between atoms: C_21  and  C_23
REMARK    8  A    between atoms: N_29  and  C_32
REMARK    9  A    between atoms: C_32  and  C_33
REMARK   10  A    between atoms: C_33  and  C_34
REMARK   11  A    between atoms: C_34  and  C_37
REMARK                            x       y       z     vdW  Elec       q    Type
REMARK                         _______ _______ _______ _____ _____    ______ ____
ROOT
ATOM      1  N   UNL     1       6.934  12.795   5.230  0.00  0.00    +0.000 N 
ATOM      2  C   UNL     1       7.766  12.940   4.115  0.00  0.00    +0.000 A 
ATOM      3  C   UNL     1       9.010  12.466   4.484  0.00  0.00    +0.000 A 
ATOM      4  C   UNL     1       9.971  12.452   3.525  0.00  0.00    +0.000 A 
ATOM      5  N   UNL     1       9.725  12.938   2.294  0.00  0.00    +0.000 NA
ATOM      6  C   UNL     1       8.478  13.427   2.033  0.00  0.00    +0.000 A 
ATOM      7  N   UNL     1       7.445  13.415   2.908  0.00  0.00    +0.000 NA
ATOM      8  N   UNL     1       8.986  12.084   5.830  0.00  0.00    +0.000 N 
ATOM      9  C   UNL     1       7.680  12.306   6.314  0.00  0.00    +0.000 A 
ATOM     10  O   UNL     1       7.269  12.098   7.444  0.00  0.00    +0.000 OA
ENDROOT
BRANCH   6  11
ATOM     11  C   UNL     1       8.280  14.040   0.700  0.00  0.00    +0.000 A 
ATOM     12  C   UNL     1       9.303  14.796   0.088  0.00  0.00    +0.000 A 
ATOM     13  C   UNL     1       9.123  15.410  -1.156  0.00  0.00    +0.000 A 
ATOM     14  C   UNL     1       7.915  15.282  -1.825  0.00  0.00    +0.000 A 
ATOM     15  C   UNL     1       6.885  14.535  -1.252  0.00  0.00    +0.000 A 
ATOM     16  C   UNL     1       7.067  13.923  -0.005  0.00  0.00    +0.000 A 
ENDBRANCH   6  11
BRANCH   1  17
ATOM     17  C   UNL     1       5.550  13.171   5.300  0.00  0.00    +0.000 C 
BRANCH  17  19
ATOM     18  N   UNL     1       4.620  14.896   6.878  0.00  0.00    +0.000 N 
ATOM     19  C   UNL     1       5.390  14.635   5.736  0.00  0.00    +0.000 C 
ATOM     20  O   UNL     1       5.902  15.529   5.059  0.00  0.00    +0.000 OA
BRANCH  18  22
ATOM     21  C   UNL     1       3.363  17.135   6.512  0.00  0.00    +0.000 C 
ATOM     22  C   UNL     1       4.318  16.269   7.323  0.00  0.00    +0.000 C 
ENDBRANCH  18  22
BRANCH  18  23
ATOM     23  C   UNL     1       3.913  13.836   7.621  0.00  0.00    +0.000 C 
BRANCH  23  24
ATOM     24  C   UNL     1       2.404  13.943   7.693  0.00  0.00    +0.000 A 
ATOM     25  C   UNL     1       1.673  13.689   6.518  0.00  0.00    +0.000 A 
ATOM     26  F   UNL     1       2.322  13.284   5.418  0.00  0.00    +0.000 F 
ATOM     27  C   UNL     1       0.294  13.851   6.455  0.00  0.00    +0.000 A 
ATOM     28  C   UNL     1      -0.380  14.277   7.587  0.00  0.00    +0.000 A 
ATOM     29  F   UNL     1      -1.704  14.478   7.531  0.00  0.00    +0.000 F 
ATOM     30  C   UNL     1       0.301  14.512   8.776  0.00  0.00    +0.000 A 
ATOM     31  C   UNL     1       1.691  14.338   8.834  0.00  0.00    +0.000 A 
ENDBRANCH  23  24
ENDBRANCH  18  23
ENDBRANCH  17  19
ENDBRANCH   1  17
BRANCH   8  32
ATOM     32  C   UNL     1      10.076  11.507   6.585  0.00  0.00    +0.000 C 
BRANCH  32  33
ATOM     33  C   UNL     1      10.218  10.002   6.372  0.00  0.00    +0.000 C 
BRANCH  33  34
ATOM     34  C   UNL     1       9.536   9.224   7.485  0.00  0.00    +0.000 C 
ATOM     35  F   UNL     1       8.233   9.016   7.174  0.00  0.00    +0.000 F 
ATOM     36  F   UNL     1      10.112   7.999   7.600  0.00  0.00    +0.000 F 
ATOM     37  C   UNL     1       9.627   9.934   8.819  0.00  0.00    +0.000 C 
ENDBRANCH  33  34
ENDBRANCH  32  33
ENDBRANCH   8  32
TORSDOF 9
ENDMDL
MODEL 2
REMARK VINA RESULT:    -6.425      3.564      5.230
REMARK INTER + INTRA:         -11.698
REMARK INTER:                  -8.706
REMARK INTRA:                  -2.991
REMARK UNBOUND:                -1.891
REMARK  Name = 
REMARK  11 active torsions:
REMARK  status: ('A' for Active; 'I' for Inactive)
REMARK    1  A    between atoms: C_1  and  C_2
REMARK    2  A    between atoms: C_2  and  N_3
REMARK    3  A    between atoms: N_3  and  C_4
REMARK    4  A    between atoms: C_4  and  C_5
REMARK    5  A    between atoms: C_13  and  C_15
REMARK    6  A    between atoms: C_15  and  N_16
REMARK    7  A    between atoms: C_21  and  C_23
REMARK    8  A    between atoms: N_29  and  C_32
REMARK    9  A    between atoms: C_32  and  C_33
REMARK   10  A    between atoms: C_33  and  C_34
REMARK   11  A    between atoms: C_34  and  C_37
REMARK                            x       y       z     vdW  Elec       q    Type
REMARK                         _______ _______ _______ _____ _____    ______ ____
ROOT
ATOM      1  N   UNL     1       6.854  13.871   8.992  0.00  0.00    +0.000 N 
ATOM      2  C   UNL     1       6.159  13.715   7.787  0.00  0.00    +0.000 A 
ATOM      3  C   UNL     1       7.058  13.196   6.876  0.00  0.00    +0.000 A 
ATOM      4  C   UNL     1       6.579  12.903   5.640  0.00  0.00    +0.000 A 
ATOM      5  N   UNL     1       5.299  13.168   5.315  0.00  0.00    +0.000 NA
ATOM      6  C   UNL     1       4.496  13.724   6.267  0.00  0.00    +0.000 A 
ATOM      7  N   UNL     1       4.873  13.983   7.541  0.00  0.00    +0.000 NA
ATOM      8  N   UNL     1       8.319  13.081   7.473  0.00  0.00    +0.000 N 
ATOM      9  C   UNL     1       8.201  13.523   8.807  0.00  0.00    +0.000 A 
ATOM     10  O   UNL     1       9.087  13.577   9.645  0.00  0.00    +0.000 OA
ENDROOT
BRANCH   6  11
ATOM     11  C   UNL     1       3.127  14.089   5.839  0.00  0.00    +0.000 A 
ATOM     12  C   UNL     1       2.223  13.107   5.377  0.00  0.00    +0.000 A 
ATOM     13  C   UNL     1       0.938  13.435   4.937  0.00  0.00    +0.000 A 
ATOM     14  C   UNL     1       0.517  14.757   4.949  0.00  0.00    +0.000 A 
ATOM     15  C   UNL     1       1.381  15.752   5.406  0.00  0.00    +0.000 A 
ATOM     16  C   UNL     1       2.670  15.419   5.844  0.00  0.00    +0.000 A 
ENDBRANCH   6  11
BRANCH   1  17
ATOM     17  C   UNL     1       6.309  14.393  10.214  0.00  0.00    +0.000 C 
BRANCH  17  19
ATOM     18  N   UNL     1       4.380  13.475  11.544  0.00  0.00    +0.000 N 
ATOM     19  C   UNL     1       5.685  13.279  11.068  0.00  0.00    +0.000 C 
ATOM     20  O   UNL     1       6.350  12.278  11.341  0.00  0.00    +0.000 OA
BRANCH  18  22
ATOM     21  C   UNL     1       3.273  11.161  11.930  0.00  0.00    +0.000 C 
ATOM     22  C   UNL     1       3.727  12.517  12.455  0.00  0.00    +0.000 C 
ENDBRANCH  18  22
BRANCH  18  23
ATOM     23  C   UNL     1       3.628  14.722  11.313  0.00  0.00    +0.000 C 
BRANCH  23  24
ATOM     24  C   UNL     1       2.475  14.651  10.333  0.00  0.00    +0.000 A 
ATOM     25  C   UNL     1       1.525  15.689  10.365  0.00  0.00    +0.000 A 
ATOM     26  F   UNL     1       1.718  16.728  11.188  0.00  0.00    +0.000 F 
ATOM     27  C   UNL     1       0.383  15.670   9.572  0.00  0.00    +0.000 A 
ATOM     28  C   UNL     1       0.175  14.594   8.725  0.00  0.00    +0.000 A 
ATOM     29  F   UNL     1      -0.941  14.542   7.986  0.00  0.00    +0.000 F 
ATOM     30  C   UNL     1       1.104  13.563   8.644  0.00  0.00    +0.000 A 
ATOM     31  C   UNL     1       2.257  13.593   9.440  0.00  0.00    +0.000 A 
ENDBRANCH  23  24
ENDBRANCH  18  23
ENDBRANCH  17  19
ENDBRANCH   1  17
BRANCH   8  32
ATOM     32  C   UNL     1       9.519  12.550   6.865  0.00  0.00    +0.000 C 
BRANCH  32  33
ATOM     33  C   UNL     1       9.900  11.174   7.404  0.00  0.00    +0.000 C 
BRANCH  33  34
ATOM     34  C   UNL     1       9.012  10.089   6.816  0.00  0.00    +0.000 C 
ATOM     35  F   UNL     1       7.872   9.982   7.540  0.00  0.00    +0.000 F 
ATOM     36  F   UNL     1       8.645  10.437   5.555  0.00  0.00    +0.000 F 
ATOM     37  C   UNL     1       9.705   8.744   6.769  0.00  0.00    +0.000 C 
ENDBRANCH  33  34
ENDBRANCH  32  33
ENDBRANCH   8  32
TORSDOF 9
ENDMDL
MODEL 3
REMARK VINA RESULT:    -6.375      2.066      2.748
REMARK INTER + INTRA:         -11.621
REMARK INTER:                 -10.186
REMARK INTRA:                  -1.435
REMARK UNBOUND:                -1.891
REMARK  Name = 
REMARK  11 active torsions:
REMARK  status: ('A' for Active; 'I' for Inactive)
REMARK    1  A    between atoms: C_1  and  C_2
REMARK    2  A    between atoms: C_2  and  N_3
REMARK    3  A    between atoms: N_3  and  C_4
REMARK    4  A    between atoms: C_4  and  C_5
REMARK    5  A    between atoms: C_13  and  C_15
REMARK    6  A    between atoms: C_15  and  N_16
REMARK    7  A    between atoms: C_21  and  C_23
REMARK    8  A    between atoms: N_29  and  C_32
REMARK    9  A    between atoms: C_32  and  C_33
REMARK   10  A    between atoms: C_33  and  C_34
REMARK   11  A    between atoms: C_34  and  C_37
REMARK                            x       y       z     vdW  Elec       q    Type
REMARK                         _______ _______ _______ _____ _____    ______ ____
ROOT
ATOM      1  N   UNL     1       7.004  13.525   7.508  0.00  0.00    +0.000 N 
ATOM      2  C   UNL     1       7.381  13.308   6.178  0.00  0.00    +0.000 A 
ATOM      3  C   UNL     1       8.162  12.169   6.169  0.00  0.00    +0.000 A 
ATOM      4  C   UNL     1       8.593  11.730   4.959  0.00  0.00    +0.000 A 
ATOM      5  N   UNL     1       8.314  12.417   3.835  0.00  0.00    +0.000 NA
ATOM      6  C   UNL     1       7.572  13.557   3.947  0.00  0.00    +0.000 A 
ATOM      7  N   UNL     1       7.046  14.027   5.102  0.00  0.00    +0.000 NA
ATOM      8  N   UNL     1       8.331  11.705   7.479  0.00  0.00    +0.000 N 
ATOM      9  C   UNL     1       7.616  12.569   8.333  0.00  0.00    +0.000 A 
ATOM     10  O   UNL     1       7.526  12.494   9.548  0.00  0.00    +0.000 OA
ENDROOT
BRANCH   6  11
ATOM     11  C   UNL     1       7.371  14.333   2.702  0.00  0.00    +0.000 A 
ATOM     12  C   UNL     1       7.354  13.696   1.442  0.00  0.00    +0.000 A 
ATOM     13  C   UNL     1       7.199  14.415   0.253  0.00  0.00    +0.000 A 
ATOM     14  C   UNL     1       7.053  15.794   0.291  0.00  0.00    +0.000 A 
ATOM     15  C   UNL     1       7.057  16.455   1.519  0.00  0.00    +0.000 A 
ATOM     16  C   UNL     1       7.215  15.732   2.708  0.00  0.00    +0.000 A 
ENDBRANCH   6  11
BRANCH   1  17
ATOM     17  C   UNL     1       6.192  14.611   7.984  0.00  0.00    +0.000 C 
BRANCH  17  19
ATOM     18  N   UNL     1       3.833  13.737   8.013  0.00  0.00    +0.000 N 
ATOM     19  C   UNL     1       4.968  14.096   8.755  0.00  0.00    +0.000 C 
ATOM     20  O   UNL     1       5.000  14.051   9.987  0.00  0.00    +0.000 OA
BRANCH  18  22
ATOM     21  C   UNL     1       1.720  14.367   9.379  0.00  0.00    +0.000 C 
ATOM     22  C   UNL     1       2.571  13.329   8.660  0.00  0.00    +0.000 C 
ENDBRANCH  18  22
BRANCH  18  23
ATOM     23  C   UNL     1       3.755  13.899   6.550  0.00  0.00    +0.000 C 
BRANCH  23  24
ATOM     24  C   UNL     1       2.501  14.551   6.003  0.00  0.00    +0.000 A 
ATOM     25  C   UNL     1       1.551  13.721   5.380  0.00  0.00    +0.000 A 
ATOM     26  F   UNL     1       1.746  12.396   5.371  0.00  0.00    +0.000 F 
ATOM     27  C   UNL     1       0.413  14.231   4.765  0.00  0.00    +0.000 A 
ATOM     28  C   UNL     1       0.212  15.601   4.765  0.00  0.00    +0.000 A 
ATOM     29  F   UNL     1      -0.858  16.111   4.141  0.00  0.00    +0.000 F 
ATOM     30  C   UNL     1       1.112  16.453   5.394  0.00  0.00    +0.000 A 
ATOM     31  C   UNL     1       2.253  15.931   6.020  0.00  0.00    +0.000 A 
ENDBRANCH  23  24
ENDBRANCH  18  23
ENDBRANCH  17  19
ENDBRANCH   1  17
BRANCH   8  32
ATOM     32  C   UNL     1       9.054  10.523   7.891  0.00  0.00    +0.000 C 
BRANCH  32  33
ATOM     33  C   UNL     1       8.198   9.259   7.854  0.00  0.00    +0.000 C 
BRANCH  33  34
ATOM     34  C   UNL     1       8.056   8.652   9.241  0.00  0.00    +0.000 C 
ATOM     35  F   UNL     1       8.072   9.631  10.178  0.00  0.00    +0.000 F 
ATOM     36  F   UNL     1       6.852   8.031   9.342  0.00  0.00    +0.000 F 
ATOM     37  C   UNL     1       9.149   7.650   9.542  0.00  0.00    +0.000 C 
ENDBRANCH  33  34
ENDBRANCH  32  33
ENDBRANCH   8  32
TORSDOF 9
ENDMDL
MODEL 4
REMARK VINA RESULT:    -6.307      1.663      2.163
REMARK INTER + INTRA:         -11.516
REMARK INTER:                  -9.807
REMARK INTRA:                  -1.709
REMARK UNBOUND:                -1.891
REMARK  Name = 
REMARK  11 active torsions:
REMARK  status: ('A' for Active; 'I' for Inactive)
REMARK    1  A    between atoms: C_1  and  C_2
REMARK    2  A    between atoms: C_2  and  N_3
REMARK    3  A    between atoms: N_3  and  C_4
REMARK    4  A    between atoms: C_4  and  C_5
REMARK    5  A    between atoms: C_13  and  C_15
REMARK    6  A    between atoms: C_15  and  N_16
REMARK    7  A    between atoms: C_21  and  C_23
REMARK    8  A    between atoms: N_29  and  C_32
REMARK    9  A    between atoms: C_32  and  C_33
REMARK   10  A    between atoms: C_33  and  C_34
REMARK   11  A    between atoms: C_34  and  C_37
REMARK                            x       y       z     vdW  Elec       q    Type
REMARK                         _______ _______ _______ _____ _____    ______ ____
ROOT
ATOM      1  N   UNL     1       8.280  12.310   5.775  0.00  0.00    +0.000 N 
ATOM      2  C   UNL     1       8.562  12.721   4.467  0.00  0.00    +0.000 A 
ATOM      3  C   UNL     1       9.868  12.353   4.209  0.00  0.00    +0.000 A 
ATOM      4  C   UNL     1      10.340  12.601   2.961  0.00  0.00    +0.000 A 
ATOM      5  N   UNL     1       9.578  13.232   2.047  0.00  0.00    +0.000 NA
ATOM      6  C   UNL     1       8.314  13.598   2.407  0.00  0.00    +0.000 A 
ATOM      7  N   UNL     1       7.743  13.329   3.604  0.00  0.00    +0.000 NA
ATOM      8  N   UNL     1      10.428  11.773   5.354  0.00  0.00    +0.000 N 
ATOM      9  C   UNL     1       9.434  11.759   6.354  0.00  0.00    +0.000 A 
ATOM     10  O   UNL     1       9.543  11.335   7.494  0.00  0.00    +0.000 OA
ENDROOT
BRANCH   6  11
ATOM     11  C   UNL     1       7.547  14.374   1.407  0.00  0.00    +0.000 A 
ATOM     12  C   UNL     1       7.376  15.769   1.544  0.00  0.00    +0.000 A 
ATOM     13  C   UNL     1       6.627  16.515   0.628  0.00  0.00    +0.000 A 
ATOM     14  C   UNL     1       6.030  15.886  -0.455  0.00  0.00    +0.000 A 
ATOM     15  C   UNL     1       6.185  14.511  -0.625  0.00  0.00    +0.000 A 
ATOM     16  C   UNL     1       6.934  13.766   0.295  0.00  0.00    +0.000 A 
ENDBRANCH   6  11
BRANCH   1  17
ATOM     17  C   UNL     1       7.034  12.499   6.465  0.00  0.00    +0.000 C 
BRANCH  17  19
ATOM     18  N   UNL     1       5.444  14.434   6.231  0.00  0.00    +0.000 N 
ATOM     19  C   UNL     1       6.711  13.990   6.635  0.00  0.00    +0.000 C 
ATOM     20  O   UNL     1       7.574  14.752   7.077  0.00  0.00    +0.000 OA
BRANCH  18  22
ATOM     21  C   UNL     1       5.417  16.754   5.071  0.00  0.00    +0.000 C 
ATOM     22  C   UNL     1       5.069  15.860   6.254  0.00  0.00    +0.000 C 
ENDBRANCH  18  22
BRANCH  18  23
ATOM     23  C   UNL     1       4.455  13.544   5.596  0.00  0.00    +0.000 C 
BRANCH  23  24
ATOM     24  C   UNL     1       3.022  13.668   6.073  0.00  0.00    +0.000 A 
ATOM     25  C   UNL     1       2.776  13.526   7.451  0.00  0.00    +0.000 A 
ATOM     26  F   UNL     1       3.811  13.375   8.287  0.00  0.00    +0.000 F 
ATOM     27  C   UNL     1       1.489  13.529   7.977  0.00  0.00    +0.000 A 
ATOM     28  C   UNL     1       0.416  13.678   7.114  0.00  0.00    +0.000 A 
ATOM     29  F   UNL     1      -0.832  13.642   7.600  0.00  0.00    +0.000 F 
ATOM     30  C   UNL     1       0.617  13.850   5.749  0.00  0.00    +0.000 A 
ATOM     31  C   UNL     1       1.919  13.853   5.227  0.00  0.00    +0.000 A 
ENDBRANCH  23  24
ENDBRANCH  18  23
ENDBRANCH  17  19
ENDBRANCH   1  17
BRANCH   8  32
ATOM     32  C   UNL     1      11.760  11.228   5.484  0.00  0.00    +0.000 C 
BRANCH  32  33
ATOM     33  C   UNL     1      11.884   9.816   4.918  0.00  0.00    +0.000 C 
BRANCH  33  34
ATOM     34  C   UNL     1      11.667   8.771   6.001  0.00  0.00    +0.000 C 
ATOM     35  F   UNL     1      12.125   9.232   7.189  0.00  0.00    +0.000 F 
ATOM     36  F   UNL     1      10.335   8.547   6.154  0.00  0.00    +0.000 F 
ATOM     37  C   UNL     1      12.348   7.459   5.675  0.00  0.00    +0.000 C 
ENDBRANCH  33  34
ENDBRANCH  32  33
ENDBRANCH   8  32
TORSDOF 9
ENDMDL
MODEL 5
REMARK VINA RESULT:    -6.226      3.024      6.100
REMARK INTER + INTRA:         -11.393
REMARK INTER:                  -9.475
REMARK INTRA:                  -1.918
REMARK UNBOUND:                -1.891
REMARK  Name = 
REMARK  11 active torsions:
REMARK  status: ('A' for Active; 'I' for Inactive)
REMARK    1  A    between atoms: C_1  and  C_2
REMARK    2  A    between atoms: C_2  and  N_3
REMARK    3  A    between atoms: N_3  and  C_4
REMARK    4  A    between atoms: C_4  and  C_5
REMARK    5  A    between atoms: C_13  and  C_15
REMARK    6  A    between atoms: C_15  and  N_16
REMARK    7  A    between atoms: C_21  and  C_23
REMARK    8  A    between atoms: N_29  and  C_32
REMARK    9  A    between atoms: C_32  and  C_33
REMARK   10  A    between atoms: C_33  and  C_34
REMARK   11  A    between atoms: C_34  and  C_37
REMARK                            x       y       z     vdW  Elec       q    Type
REMARK                         _______ _______ _______ _____ _____    ______ ____
ROOT
ATOM      1  N   UNL     1       8.284  12.631   4.313  0.00  0.00    +0.000 N 
ATOM      2  C   UNL     1       8.741  11.904   5.417  0.00  0.00    +0.000 A 
ATOM      3  C   UNL     1      10.091  11.691   5.220  0.00  0.00    +0.000 A 
ATOM      4  C   UNL     1      10.763  11.051   6.211  0.00  0.00    +0.000 A 
ATOM      5  N   UNL     1      10.117  10.596   7.301  0.00  0.00    +0.000 NA
ATOM      6  C   UNL     1       8.772  10.814   7.389  0.00  0.00    +0.000 A 
ATOM      7  N   UNL     1       8.040  11.502   6.482  0.00  0.00    +0.000 NA
ATOM      8  N   UNL     1      10.474  12.220   3.982  0.00  0.00    +0.000 N 
ATOM      9  C   UNL     1       9.331  12.800   3.394  0.00  0.00    +0.000 A 
ATOM     10  O   UNL     1       9.264  13.358   2.310  0.00  0.00    +0.000 OA
ENDROOT
BRANCH   6  11
ATOM     11  C   UNL     1       8.086  10.213   8.555  0.00  0.00    +0.000 A 
ATOM     12  C   UNL     1       7.798   8.832   8.598  0.00  0.00    +0.000 A 
ATOM     13  C   UNL     1       7.121   8.251   9.675  0.00  0.00    +0.000 A 
ATOM     14  C   UNL     1       6.716   9.037  10.744  0.00  0.00    +0.000 A 
ATOM     15  C   UNL     1       6.991  10.404  10.738  0.00  0.00    +0.000 A 
ATOM     16  C   UNL     1       7.667  10.983   9.656  0.00  0.00    +0.000 A 
ENDBRANCH   6  11
BRANCH   1  17
ATOM     17  C   UNL     1       6.932  13.064   4.094  0.00  0.00    +0.000 C 
BRANCH  17  19
ATOM     18  N   UNL     1       6.020  14.766   5.706  0.00  0.00    +0.000 N 
ATOM     19  C   UNL     1       6.736  14.525   4.525  0.00  0.00    +0.000 C 
ATOM     20  O   UNL     1       7.172  15.432   3.813  0.00  0.00    +0.000 OA
BRANCH  18  22
ATOM     21  C   UNL     1       4.541  16.887   5.494  0.00  0.00    +0.000 C 
ATOM     22  C   UNL     1       5.686  16.131   6.155  0.00  0.00    +0.000 C 
ENDBRANCH  18  22
BRANCH  18  23
ATOM     23  C   UNL     1       5.400  13.687   6.495  0.00  0.00    +0.000 C 
BRANCH  23  24
ATOM     24  C   UNL     1       3.889  13.585   6.444  0.00  0.00    +0.000 A 
ATOM     25  C   UNL     1       3.171  13.908   7.610  0.00  0.00    +0.000 A 
ATOM     26  F   UNL     1       3.834  14.367   8.680  0.00  0.00    +0.000 F 
ATOM     27  C   UNL     1       1.791  13.758   7.695  0.00  0.00    +0.000 A 
ATOM     28  C   UNL     1       1.104  13.276   6.594  0.00  0.00    +0.000 A 
ATOM     29  F   UNL     1      -0.220  13.087   6.674  0.00  0.00    +0.000 F 
ATOM     30  C   UNL     1       1.772  12.973   5.413  0.00  0.00    +0.000 A 
ATOM     31  C   UNL     1       3.162  13.134   5.333  0.00  0.00    +0.000 A 
ENDBRANCH  23  24
ENDBRANCH  18  23
ENDBRANCH  17  19
ENDBRANCH   1  17
BRANCH   8  32
ATOM     32  C   UNL     1      11.807  12.231   3.421  0.00  0.00    +0.000 C 
BRANCH  32  33
ATOM     33  C   UNL     1      12.009  11.166   2.346  0.00  0.00    +0.000 C 
BRANCH  33  34
ATOM     34  C   UNL     1      12.932  11.665   1.246  0.00  0.00    +0.000 C 
ATOM     35  F   UNL     1      14.222  11.418   1.576  0.00  0.00    +0.000 F 
ATOM     36  F   UNL     1      12.682  10.981   0.099  0.00  0.00    +0.000 F 
ATOM     37  C   UNL     1      12.757  13.145   0.979  0.00  0.00    +0.000 C 
ENDBRANCH  33  34
ENDBRANCH  32  33
ENDBRANCH   8  32
TORSDOF 9
ENDMDL
MODEL 6
REMARK VINA RESULT:    -6.175      3.011      6.041
REMARK INTER + INTRA:         -11.315
REMARK INTER:                  -9.702
REMARK INTRA:                  -1.613
REMARK UNBOUND:                -1.891
REMARK  Name = 
REMARK  11 active torsions:
REMARK  status: ('A' for Active; 'I' for Inactive)
REMARK    1  A    between atoms: C_1  and  C_2
REMARK    2  A    between atoms: C_2  and  N_3
REMARK    3  A    between atoms: N_3  and  C_4
REMARK    4  A    between atoms: C_4  and  C_5
REMARK    5  A    between atoms: C_13  and  C_15
REMARK    6  A    between atoms: C_15  and  N_16
REMARK    7  A    between atoms: C_21  and  C_23
REMARK    8  A    between atoms: N_29  and  C_32
REMARK    9  A    between atoms: C_32  and  C_33
REMARK   10  A    between atoms: C_33  and  C_34
REMARK   11  A    between atoms: C_34  and  C_37
REMARK                            x       y       z     vdW  Elec       q    Type
REMARK                         _______ _______ _______ _____ _____    ______ ____
ROOT
ATOM      1  N   UNL     1       7.633  12.557   5.441  0.00  0.00    +0.000 N 
ATOM      2  C   UNL     1       8.399  11.598   6.112  0.00  0.00    +0.000 A 
ATOM      3  C   UNL     1       9.657  11.626   5.542  0.00  0.00    +0.000 A 
ATOM      4  C   UNL     1      10.596  10.809   6.085  0.00  0.00    +0.000 A 
ATOM      5  N   UNL     1      10.283   9.973   7.093  0.00  0.00    +0.000 NA
ATOM      6  C   UNL     1       9.002   9.983   7.563  0.00  0.00    +0.000 A 
ATOM      7  N   UNL     1       8.025  10.812   7.126  0.00  0.00    +0.000 NA
ATOM      8  N   UNL     1       9.673  12.543   4.484  0.00  0.00    +0.000 N 
ATOM      9  C   UNL     1       8.390  13.124   4.403  0.00  0.00    +0.000 A 
ATOM     10  O   UNL     1       8.013  13.965   3.604  0.00  0.00    +0.000 OA
ENDROOT
BRANCH   6  11
ATOM     11  C   UNL     1       8.678   8.981   8.603  0.00  0.00    +0.000 A 
ATOM     12  C   UNL     1       9.644   8.050   9.043  0.00  0.00    +0.000 A 
ATOM     13  C   UNL     1       9.348   7.075  10.000  0.00  0.00    +0.000 A 
ATOM     14  C   UNL     1       8.075   7.005  10.549  0.00  0.00    +0.000 A 
ATOM     15  C   UNL     1       7.099   7.915  10.143  0.00  0.00    +0.000 A 
ATOM     16  C   UNL     1       7.398   8.889   9.182  0.00  0.00    +0.000 A 
ENDBRANCH   6  11
BRANCH   1  17
ATOM     17  C   UNL     1       6.253  12.862   5.700  0.00  0.00    +0.000 C 
BRANCH  17  19
ATOM     18  N   UNL     1       4.981  14.770   6.734  0.00  0.00    +0.000 N 
ATOM     19  C   UNL     1       6.114  13.946   6.779  0.00  0.00    +0.000 C 
ATOM     20  O   UNL     1       7.007  14.086   7.618  0.00  0.00    +0.000 OA
BRANCH  18  22
ATOM     21  C   UNL     1       4.294  17.241   7.127  0.00  0.00    +0.000 C 
ATOM     22  C   UNL     1       4.801  15.906   7.657  0.00  0.00    +0.000 C 
ENDBRANCH  18  22
BRANCH  18  23
ATOM     23  C   UNL     1       3.972  14.678   5.663  0.00  0.00    +0.000 C 
BRANCH  23  24
ATOM     24  C   UNL     1       2.612  14.134   6.053  0.00  0.00    +0.000 A 
ATOM     25  C   UNL     1       1.485  14.924   5.763  0.00  0.00    +0.000 A 
ATOM     26  F   UNL     1       1.644  16.070   5.089  0.00  0.00    +0.000 F 
ATOM     27  C   UNL     1       0.204  14.559   6.163  0.00  0.00    +0.000 A 
ATOM     28  C   UNL     1       0.036  13.378   6.867  0.00  0.00    +0.000 A 
ATOM     29  F   UNL     1      -1.186  13.033   7.294  0.00  0.00    +0.000 F 
ATOM     30  C   UNL     1       1.120  12.556   7.148  0.00  0.00    +0.000 A 
ATOM     31  C   UNL     1       2.408  12.927   6.735  0.00  0.00    +0.000 A 
ENDBRANCH  23  24
ENDBRANCH  18  23
ENDBRANCH  17  19
ENDBRANCH   1  17
BRANCH   8  32
ATOM     32  C   UNL     1      10.807  12.889   3.656  0.00  0.00    +0.000 C 
BRANCH  32  33
ATOM     33  C   UNL     1      10.787  12.192   2.298  0.00  0.00    +0.000 C 
BRANCH  33  34
ATOM     34  C   UNL     1      12.149  11.609   1.960  0.00  0.00    +0.000 C 
ATOM     35  F   UNL     1      12.076  10.894   0.812  0.00  0.00    +0.000 F 
ATOM     36  F   UNL     1      13.032  12.618   1.739  0.00  0.00    +0.000 F 
ATOM     37  C   UNL     1      12.685  10.727   3.068  0.00  0.00    +0.000 C 
ENDBRANCH  33  34
ENDBRANCH  32  33
ENDBRANCH   8  32
TORSDOF 9
ENDMDL
MODEL 7
REMARK VINA RESULT:    -6.158      6.864     10.616
REMARK INTER + INTRA:         -11.290
REMARK INTER:                  -8.563
REMARK INTRA:                  -2.727
REMARK UNBOUND:                -1.891
REMARK  Name = 
REMARK  11 active torsions:
REMARK  status: ('A' for Active; 'I' for Inactive)
REMARK    1  A    between atoms: C_1  and  C_2
REMARK    2  A    between atoms: C_2  and  N_3
REMARK    3  A    between atoms: N_3  and  C_4
REMARK    4  A    between atoms: C_4  and  C_5
REMARK    5  A    between atoms: C_13  and  C_15
REMARK    6  A    between atoms: C_15  and  N_16
REMARK    7  A    between atoms: C_21  and  C_23
REMARK    8  A    between atoms: N_29  and  C_32
REMARK    9  A    between atoms: C_32  and  C_33
REMARK   10  A    between atoms: C_33  and  C_34
REMARK   11  A    between atoms: C_34  and  C_37
REMARK                            x       y       z     vdW  Elec       q    Type
REMARK                         _______ _______ _______ _____ _____    ______ ____
ROOT
ATOM      1  N   UNL     1      -2.674  18.170   4.770  0.00  0.00    +0.000 N 
ATOM      2  C   UNL     1      -1.307  17.874   4.734  0.00  0.00    +0.000 A 
ATOM      3  C   UNL     1      -0.675  18.985   4.212  0.00  0.00    +0.000 A 
ATOM      4  C   UNL     1       0.680  18.944   4.143  0.00  0.00    +0.000 A 
ATOM      5  N   UNL     1       1.358  17.842   4.513  0.00  0.00    +0.000 NA
ATOM      6  C   UNL     1       0.645  16.774   4.976  0.00  0.00    +0.000 A 
ATOM      7  N   UNL     1      -0.699  16.756   5.142  0.00  0.00    +0.000 NA
ATOM      8  N   UNL     1      -1.629  19.948   3.863  0.00  0.00    +0.000 N 
ATOM      9  C   UNL     1      -2.898  19.432   4.197  0.00  0.00    +0.000 A 
ATOM     10  O   UNL     1      -3.979  19.977   4.040  0.00  0.00    +0.000 OA
ENDROOT
BRANCH   6  11
ATOM     11  C   UNL     1       1.419  15.550   5.280  0.00  0.00    +0.000 A 
ATOM     12  C   UNL     1       2.667  15.624   5.937  0.00  0.00    +0.000 A 
ATOM     13  C   UNL     1       3.429  14.482   6.203  0.00  0.00    +0.000 A 
ATOM     14  C   UNL     1       2.963  13.232   5.823  0.00  0.00    +0.000 A 
ATOM     15  C   UNL     1       1.731  13.123   5.179  0.00  0.00    +0.000 A 
ATOM     16  C   UNL     1       0.970  14.269   4.912  0.00  0.00    +0.000 A 
ENDBRANCH   6  11
BRANCH   1  17
ATOM     17  C   UNL     1      -3.712  17.291   5.233  0.00  0.00    +0.000 C 
BRANCH  17  19
ATOM     18  N   UNL     1      -3.819  16.873   7.712  0.00  0.00    +0.000 N 
ATOM     19  C   UNL     1      -4.196  17.689   6.635  0.00  0.00    +0.000 C 
ATOM     20  O   UNL     1      -4.925  18.674   6.769  0.00  0.00    +0.000 OA
BRANCH  18  22
ATOM     21  C   UNL     1      -3.623  18.130   9.972  0.00  0.00    +0.000 C 
ATOM     22  C   UNL     1      -4.313  17.105   9.082  0.00  0.00    +0.000 C 
ENDBRANCH  18  22
BRANCH  18  23
ATOM     23  C   UNL     1      -3.044  15.631   7.536  0.00  0.00    +0.000 C 
BRANCH  23  24
ATOM     24  C   UNL     1      -1.609  15.648   8.022  0.00  0.00    +0.000 A 
ATOM     25  C   UNL     1      -0.890  14.439   7.980  0.00  0.00    +0.000 A 
ATOM     26  F   UNL     1      -1.464  13.355   7.441  0.00  0.00    +0.000 F 
ATOM     27  C   UNL     1       0.399  14.327   8.489  0.00  0.00    +0.000 A 
ATOM     28  C   UNL     1       0.992  15.443   9.055  0.00  0.00    +0.000 A 
ATOM     29  F   UNL     1       2.218  15.341   9.587  0.00  0.00    +0.000 F 
ATOM     30  C   UNL     1       0.327  16.663   9.090  0.00  0.00    +0.000 A 
ATOM     31  C   UNL     1      -0.970  16.770   8.568  0.00  0.00    +0.000 A 
ENDBRANCH  23  24
ENDBRANCH  18  23
ENDBRANCH  17  19
ENDBRANCH   1  17
BRANCH   8  32
ATOM     32  C   UNL     1      -1.373  21.262   3.316  0.00  0.00    +0.000 C 
BRANCH  32  33
ATOM     33  C   UNL     1      -1.794  21.391   1.854  0.00  0.00    +0.000 C 
BRANCH  33  34
ATOM     34  C   UNL     1      -0.597  21.267   0.926  0.00  0.00    +0.000 C 
ATOM     35  F   UNL     1       0.375  22.131   1.305  0.00  0.00    +0.000 F 
ATOM     36  F   UNL     1      -0.072  20.017   1.026  0.00  0.00    +0.000 F 
ATOM     37  C   UNL     1      -0.964  21.527  -0.520  0.00  0.00    +0.000 C 
ENDBRANCH  33  34
ENDBRANCH  32  33
ENDBRANCH   8  32
TORSDOF 9
ENDMDL
MODEL 8
REMARK VINA RESULT:    -6.058      4.585      7.069
REMARK INTER + INTRA:         -11.137
REMARK INTER:                  -8.604
REMARK INTRA:                  -2.533
REMARK UNBOUND:                -1.891
REMARK  Name = 
REMARK  11 active torsions:
REMARK  status: ('A' for Active; 'I' for Inactive)
REMARK    1  A    between atoms: C_1  and  C_2
REMARK    2  A    between atoms: C_2  and  N_3
REMARK    3  A    between atoms: N_3  and  C_4
REMARK    4  A    between atoms: C_4  and  C_5
REMARK    5  A    between atoms: C_13  and  C_15
REMARK    6  A    between atoms: C_15  and  N_16
REMARK    7  A    between atoms: C_21  and  C_23
REMARK    8  A    between atoms: N_29  and  C_32
REMARK    9  A    between atoms: C_32  and  C_33
REMARK   10  A    between atoms: C_33  and  C_34
REMARK   11  A    between atoms: C_34  and  C_37
REMARK                            x       y       z     vdW  Elec       q    Type
REMARK                         _______ _______ _______ _____ _____    ______ ____
ROOT
ATOM      1  N   UNL     1      11.160   8.930   6.405  0.00  0.00    +0.000 N 
ATOM      2  C   UNL     1      12.128   9.269   5.452  0.00  0.00    +0.000 A 
ATOM      3  C   UNL     1      13.171   8.378   5.612  0.00  0.00    +0.000 A 
ATOM      4  C   UNL     1      14.206   8.482   4.740  0.00  0.00    +0.000 A 
ATOM      5  N   UNL     1      14.228   9.452   3.807  0.00  0.00    +0.000 NA
ATOM      6  C   UNL     1      13.173  10.316   3.753  0.00  0.00    +0.000 A 
ATOM      7  N   UNL     1      12.072  10.241   4.537  0.00  0.00    +0.000 NA
ATOM      8  N   UNL     1      12.899   7.526   6.690  0.00  0.00    +0.000 N 
ATOM      9  C   UNL     1      11.637   7.881   7.208  0.00  0.00    +0.000 A 
ATOM     10  O   UNL     1      11.059   7.370   8.153  0.00  0.00    +0.000 OA
ENDROOT
BRANCH   6  11
ATOM     11  C   UNL     1      13.283  11.424   2.778  0.00  0.00    +0.000 A 
ATOM     12  C   UNL     1      13.490  12.753   3.209  0.00  0.00    +0.000 A 
ATOM     13  C   UNL     1      13.564  13.818   2.307  0.00  0.00    +0.000 A 
ATOM     14  C   UNL     1      13.436  13.585   0.945  0.00  0.00    +0.000 A 
ATOM     15  C   UNL     1      13.239  12.283   0.485  0.00  0.00    +0.000 A 
ATOM     16  C   UNL     1      13.163  11.218   1.392  0.00  0.00    +0.000 A 
ENDBRANCH   6  11
BRANCH   1  17
ATOM     17  C   UNL     1       9.907   9.603   6.606  0.00  0.00    +0.000 C 
BRANCH  17  19
ATOM     18  N   UNL     1       9.323  12.043   6.430  0.00  0.00    +0.000 N 
ATOM     19  C   UNL     1      10.119  11.061   7.037  0.00  0.00    +0.000 C 
ATOM     20  O   UNL     1      10.997  11.330   7.860  0.00  0.00    +0.000 OA
BRANCH  18  22
ATOM     21  C   UNL     1       8.314  14.360   7.016  0.00  0.00    +0.000 C 
ATOM     22  C   UNL     1       9.515  13.482   6.695  0.00  0.00    +0.000 C 
ENDBRANCH  18  22
BRANCH  18  23
ATOM     23  C   UNL     1       8.354  11.735   5.363  0.00  0.00    +0.000 C 
BRANCH  23  24
ATOM     24  C   UNL     1       8.553  12.441   4.037  0.00  0.00    +0.000 A 
ATOM     25  C   UNL     1       7.447  13.112   3.481  0.00  0.00    +0.000 A 
ATOM     26  F   UNL     1       6.303  13.173   4.174  0.00  0.00    +0.000 F 
ATOM     27  C   UNL     1       7.500  13.710   2.227  0.00  0.00    +0.000 A 
ATOM     28  C   UNL     1       8.679  13.643   1.504  0.00  0.00    +0.000 A 
ATOM     29  F   UNL     1       8.733  14.179   0.277  0.00  0.00    +0.000 F 
ATOM     30  C   UNL     1       9.802  13.014   2.030  0.00  0.00    +0.000 A 
ATOM     31  C   UNL     1       9.744  12.420   3.298  0.00  0.00    +0.000 A 
ENDBRANCH  23  24
ENDBRANCH  18  23
ENDBRANCH  17  19
ENDBRANCH   1  17
BRANCH   8  32
ATOM     32  C   UNL     1      13.725   6.436   7.160  0.00  0.00    +0.000 C 
BRANCH  32  33
ATOM     33  C   UNL     1      13.274   5.077   6.630  0.00  0.00    +0.000 C 
BRANCH  33  34
ATOM     34  C   UNL     1      14.364   4.424   5.795  0.00  0.00    +0.000 C 
ATOM     35  F   UNL     1      15.310   5.339   5.472  0.00  0.00    +0.000 F 
ATOM     36  F   UNL     1      14.983   3.462   6.528  0.00  0.00    +0.000 F 
ATOM     37  C   UNL     1      13.818   3.798   4.530  0.00  0.00    +0.000 C 
ENDBRANCH  33  34
ENDBRANCH  32  33
ENDBRANCH   8  32
TORSDOF 9
ENDMDL
MODEL 9
REMARK VINA RESULT:    -6.011      5.353      9.209
REMARK INTER + INTRA:         -11.065
REMARK INTER:                  -7.943
REMARK INTRA:                  -3.122
REMARK UNBOUND:                -1.891
REMARK  Name = 
REMARK  11 active torsions:
REMARK  status: ('A' for Active; 'I' for Inactive)
REMARK    1  A    between atoms: C_1  and  C_2
REMARK    2  A    between atoms: C_2  and  N_3
REMARK    3  A    between atoms: N_3  and  C_4
REMARK    4  A    between atoms: C_4  and  C_5
REMARK    5  A    between atoms: C_13  and  C_15
REMARK    6  A    between atoms: C_15  and  N_16
REMARK    7  A    between atoms: C_21  and  C_23
REMARK    8  A    between atoms: N_29  and  C_32
REMARK    9  A    between atoms: C_32  and  C_33
REMARK   10  A    between atoms: C_33  and  C_34
REMARK   11  A    between atoms: C_34  and  C_37
REMARK                            x       y       z     vdW  Elec       q    Type
REMARK                         _______ _______ _______ _____ _____    ______ ____
ROOT
ATOM      1  N   UNL     1       2.604  13.711  10.361  0.00  0.00    +0.000 N 
ATOM      2  C   UNL     1       1.507  14.579  10.382  0.00  0.00    +0.000 A 
ATOM      3  C   UNL     1       1.102  14.674  11.699  0.00  0.00    +0.000 A 
ATOM      4  C   UNL     1       0.078  15.524  11.967  0.00  0.00    +0.000 A 
ATOM      5  N   UNL     1      -0.544  16.190  10.975  0.00  0.00    +0.000 NA
ATOM      6  C   UNL     1      -0.103  15.999   9.698  0.00  0.00    +0.000 A 
ATOM      7  N   UNL     1       0.953  15.226   9.352  0.00  0.00    +0.000 NA
ATOM      8  N   UNL     1       1.888  13.832  12.494  0.00  0.00    +0.000 N 
ATOM      9  C   UNL     1       2.830  13.206  11.652  0.00  0.00    +0.000 A 
ATOM     10  O   UNL     1       3.685  12.398  11.976  0.00  0.00    +0.000 OA
ENDROOT
BRANCH   6  11
ATOM     11  C   UNL     1      -0.875  16.674   8.630  0.00  0.00    +0.000 A 
ATOM     12  C   UNL     1      -1.966  16.031   8.005  0.00  0.00    +0.000 A 
ATOM     13  C   UNL     1      -2.687  16.638   6.972  0.00  0.00    +0.000 A 
ATOM     14  C   UNL     1      -2.340  17.909   6.537  0.00  0.00    +0.000 A 
ATOM     15  C   UNL     1      -1.273  18.576   7.139  0.00  0.00    +0.000 A 
ATOM     16  C   UNL     1      -0.551  17.964   8.172  0.00  0.00    +0.000 A 
ENDBRANCH   6  11
BRANCH   1  17
ATOM     17  C   UNL     1       3.339  13.314   9.193  0.00  0.00    +0.000 C 
BRANCH  17  19
ATOM     18  N   UNL     1       4.740  14.576   7.527  0.00  0.00    +0.000 N 
ATOM     19  C   UNL     1       4.464  14.311   8.876  0.00  0.00    +0.000 C 
ATOM     20  O   UNL     1       5.110  14.810   9.799  0.00  0.00    +0.000 OA
BRANCH  18  22
ATOM     21  C   UNL     1       5.717  16.950   7.155  0.00  0.00    +0.000 C 
ATOM     22  C   UNL     1       5.865  15.435   7.112  0.00  0.00    +0.000 C 
ENDBRANCH  18  22
BRANCH  18  23
ATOM     23  C   UNL     1       4.044  13.891   6.422  0.00  0.00    +0.000 C 
BRANCH  23  24
ATOM     24  C   UNL     1       2.731  14.492   5.966  0.00  0.00    +0.000 A 
ATOM     25  C   UNL     1       1.774  13.625   5.408  0.00  0.00    +0.000 A 
ATOM     26  F   UNL     1       2.021  12.309   5.379  0.00  0.00    +0.000 F 
ATOM     27  C   UNL     1       0.576  14.090   4.874  0.00  0.00    +0.000 A 
ATOM     28  C   UNL     1       0.320  15.451   4.896  0.00  0.00    +0.000 A 
ATOM     29  F   UNL     1      -0.810  15.918   4.349  0.00  0.00    +0.000 F 
ATOM     30  C   UNL     1       1.228  16.338   5.464  0.00  0.00    +0.000 A 
ATOM     31  C   UNL     1       2.429  15.860   6.007  0.00  0.00    +0.000 A 
ENDBRANCH  23  24
ENDBRANCH  18  23
ENDBRANCH  17  19
ENDBRANCH   1  17
BRANCH   8  32
ATOM     32  C   UNL     1       1.804  13.669  13.928  0.00  0.00    +0.000 C 
BRANCH  32  33
ATOM     33  C   UNL     1       0.998  12.440  14.342  0.00  0.00    +0.000 C 
BRANCH  33  34
ATOM     34  C   UNL     1      -0.445  12.808  14.649  0.00  0.00    +0.000 C 
ATOM     35  F   UNL     1      -0.510  14.080  15.112  0.00  0.00    +0.000 F 
ATOM     36  F   UNL     1      -1.176  12.768  13.505  0.00  0.00    +0.000 F 
ATOM     37  C   UNL     1      -1.071  11.873  15.662  0.00  0.00    +0.000 C 
ENDBRANCH  33  34
ENDBRANCH  32  33
ENDBRANCH   8  32
TORSDOF 9
ENDMDL
