MODEL 1
REMARK VINA RESULT:    -6.504      0.000      0.000
REMARK INTER + INTRA:         -11.853
REMARK INTER:                  -9.926
REMARK INTRA:                  -1.927
REMARK UNBOUND:                -1.927
REMARK  Name = 
REMARK  11 active torsions:
REMARK  status: ('A' for Active; 'I' for Inactive)
REMARK    1  A    between atoms: C_1  and  C_2
REMARK    2  A    between atoms: C_2  and  N_3
REMARK    3  A    between atoms: N_3  and  C_4
REMARK    4  A    between atoms: C_4  and  C_5
REMARK    5  A    between atoms: C_13  and  C_15
REMARK    6  A    between atoms: C_15  and  N_16
REMARK    7  A    between atoms: C_21  and  C_23
REMARK    8  A    between atoms: N_29  and  C_32
REMARK    9  A    between atoms: C_32  and  C_33
REMARK   10  A    between atoms: C_33  and  C_34
REMARK   11  A    between atoms: C_34  and  C_37
REMARK                            x       y       z     vdW  Elec       q    Type
REMARK                         _______ _______ _______ _____ _____    ______ ____
ROOT
ATOM      1  N   UNL     1       6.958  12.790   5.258  0.00  0.00    +0.000 N 
ATOM      2  C   UNL     1       7.787  12.929   4.137  0.00  0.00    +0.000 A 
ATOM      3  C   UNL     1       9.029  12.437   4.493  0.00  0.00    +0.000 A 
ATOM      4  C   UNL     1       9.994  12.450   3.539  0.00  0.00    +0.000 A 
ATOM      5  N   UNL     1       9.742  12.952   2.313  0.00  0.00    +0.000 NA
ATOM      6  C   UNL     1       8.491  13.442   2.061  0.00  0.00    +0.000 A 
ATOM      7  N   UNL     1       7.464  13.423   2.938  0.00  0.00    +0.000 NA
ATOM      8  N   UNL     1       8.994  12.010   5.825  0.00  0.00    +0.000 N 
ATOM      9  C   UNL     1       7.702  12.272   6.326  0.00  0.00    +0.000 A 
ATOM     10  O   UNL     1       7.297  12.062   7.457  0.00  0.00    +0.000 OA
ENDROOT
BRANCH   6  11
ATOM     11  C   UNL     1       8.272  14.040   0.725  0.00  0.00    +0.000 A 
ATOM     12  C   UNL     1       9.295  14.764   0.075  0.00  0.00    +0.000 A 
ATOM     13  C   UNL     1       9.106  15.346  -1.183  0.00  0.00    +0.000 A 
ATOM     14  C   UNL     1       7.879  15.221  -1.825  0.00  0.00    +0.000 A 
ATOM     15  C   UNL     1       6.847  14.518  -1.209  0.00  0.00    +0.000 A 
ATOM     16  C   UNL     1       7.041  13.937   0.051  0.00  0.00    +0.000 A 
ENDBRANCH   6  11
BRANCH   1  17
ATOM     17  C   UNL     1       5.572  13.170   5.332  0.00  0.00    +0.000 C 
BRANCH  17  19
ATOM     18  N   UNL     1       4.597  14.928   6.883  0.00  0.00    +0.000 N 
ATOM     19  C   UNL     1       5.450  14.619   5.820  0.00  0.00    +0.000 C 
ATOM     20  O   UNL     1       6.135  15.474   5.249  0.00  0.00    +0.000 OA
BRANCH  18  22
ATOM     21  C   UNL     1       3.348  17.184   6.597  0.00  0.00    +0.000 C 
ATOM     22  C   UNL     1       4.369  16.319   7.322  0.00  0.00    +0.000 C 
ENDBRANCH  18  22
BRANCH  18  23
ATOM     23  C   UNL     1       3.883  13.914   7.679  0.00  0.00    +0.000 C 
BRANCH  23  24
ATOM     24  C   UNL     1       2.384  13.842   7.507  0.00  0.00    +0.000 A 
ATOM     25  C   UNL     1       1.723  13.454   6.341  0.00  0.00    +0.000 A 
ATOM     26  F   UNL     1       2.408  13.012   5.278  0.00  0.00    +0.000 F 
ATOM     27  C   UNL     1       0.331  13.518   6.227  0.00  0.00    +0.000 A 
ATOM     28  C   UNL     1      -0.442  13.955   7.299  0.00  0.00    +0.000 A 
ATOM     29  C   UNL     1       0.184  14.300   8.490  0.00  0.00    +0.000 A 
ATOM     30  C   UNL     1       1.577  14.240   8.584  0.00  0.00    +0.000 A 
ATOM     31  F   UNL     1       2.150  14.589   9.745  0.00  0.00    +0.000 F 
ENDBRANCH  23  24
ENDBRANCH  18  23
ENDBRANCH  17  19
ENDBRANCH   1  17
BRANCH   8  32
ATOM     32  C   UNL     1      10.074  11.390   6.565  0.00  0.00    +0.000 C 
BRANCH  32  33
ATOM     33  C   UNL     1      10.077   9.878   6.347  0.00  0.00    +0.000 C 
BRANCH  33  34
ATOM     34  C   UNL     1       9.510   9.126   7.535  0.00  0.00    +0.000 C 
ATOM     35  F   UNL     1       8.193   8.875   7.332  0.00  0.00    +0.000 F 
ATOM     36  F   UNL     1      10.124   7.924   7.661  0.00  0.00    +0.000 F 
ATOM     37  C   UNL     1       9.680   9.909   8.823  0.00  0.00    +0.000 C 
ENDBRANCH  33  34
ENDBRANCH  32  33
ENDBRANCH   8  32
TORSDOF 9
ENDMDL
MODEL 2
REMARK VINA RESULT:    -6.394      0.389      1.399
REMARK INTER + INTRA:         -11.685
REMARK INTER:                 -10.003
REMARK INTRA:                  -1.682
REMARK UNBOUND:                -1.927
REMARK  Name = 
REMARK  11 active torsions:
REMARK  status: ('A' for Active; 'I' for Inactive)
REMARK    1  A    between atoms: C_1  and  C_2
REMARK    2  A    between atoms: C_2  and  N_3
REMARK    3  A    between atoms: N_3  and  C_4
REMARK    4  A    between atoms: C_4  and  C_5
REMARK    5  A    between atoms: C_13  and  C_15
REMARK    6  A    between atoms: C_15  and  N_16
REMARK    7  A    between atoms: C_21  and  C_23
REMARK    8  A    between atoms: N_29  and  C_32
REMARK    9  A    between atoms: C_32  and  C_33
REMARK   10  A    between atoms: C_33  and  C_34
REMARK   11  A    between atoms: C_34  and  C_37
REMARK                            x       y       z     vdW  Elec       q    Type
REMARK                         _______ _______ _______ _____ _____    ______ ____
ROOT
ATOM      1  N   UNL     1       7.051  12.817   5.293  0.00  0.00    +0.000 N 
ATOM      2  C   UNL     1       7.866  12.972   4.165  0.00  0.00    +0.000 A 
ATOM      3  C   UNL     1       9.127  12.526   4.518  0.00  0.00    +0.000 A 
ATOM      4  C   UNL     1      10.085  12.561   3.557  0.00  0.00    +0.000 A 
ATOM      5  N   UNL     1       9.808  13.039   2.327  0.00  0.00    +0.000 NA
ATOM      6  C   UNL     1       8.539  13.482   2.078  0.00  0.00    +0.000 A 
ATOM      7  N   UNL     1       7.519  13.439   2.963  0.00  0.00    +0.000 NA
ATOM      8  N   UNL     1       9.115  12.115   5.855  0.00  0.00    +0.000 N 
ATOM      9  C   UNL     1       7.819  12.338   6.362  0.00  0.00    +0.000 A 
ATOM     10  O   UNL     1       7.429  12.128   7.498  0.00  0.00    +0.000 OA
ENDROOT
BRANCH   6  11
ATOM     11  C   UNL     1       8.290  14.057   0.736  0.00  0.00    +0.000 A 
ATOM     12  C   UNL     1       9.298  14.772   0.053  0.00  0.00    +0.000 A 
ATOM     13  C   UNL     1       9.080  15.331  -1.210  0.00  0.00    +0.000 A 
ATOM     14  C   UNL     1       7.841  15.192  -1.825  0.00  0.00    +0.000 A 
ATOM     15  C   UNL     1       6.824  14.496  -1.176  0.00  0.00    +0.000 A 
ATOM     16  C   UNL     1       7.047  13.938   0.089  0.00  0.00    +0.000 A 
ENDBRANCH   6  11
BRANCH   1  17
ATOM     17  C   UNL     1       5.652  13.151   5.372  0.00  0.00    +0.000 C 
BRANCH  17  19
ATOM     18  N   UNL     1       4.592  14.912   6.863  0.00  0.00    +0.000 N 
ATOM     19  C   UNL     1       5.485  14.605   5.832  0.00  0.00    +0.000 C 
ATOM     20  O   UNL     1       6.169  15.464   5.268  0.00  0.00    +0.000 OA
BRANCH  18  22
ATOM     21  C   UNL     1       3.449  17.194   6.396  0.00  0.00    +0.000 C 
ATOM     22  C   UNL     1       4.321  16.305   7.271  0.00  0.00    +0.000 C 
ENDBRANCH  18  22
BRANCH  18  23
ATOM     23  C   UNL     1       3.875  13.896   7.654  0.00  0.00    +0.000 C 
BRANCH  23  24
ATOM     24  C   UNL     1       2.367  13.912   7.579  0.00  0.00    +0.000 A 
ATOM     25  C   UNL     1       1.516  14.449   8.546  0.00  0.00    +0.000 A 
ATOM     26  F   UNL     1       2.008  15.099   9.609  0.00  0.00    +0.000 F 
ATOM     27  C   UNL     1       0.127  14.328   8.455  0.00  0.00    +0.000 A 
ATOM     28  C   UNL     1      -0.452  13.676   7.368  0.00  0.00    +0.000 A 
ATOM     29  C   UNL     1       0.368  13.175   6.364  0.00  0.00    +0.000 A 
ATOM     30  C   UNL     1       1.755  13.297   6.476  0.00  0.00    +0.000 A 
ATOM     31  F   UNL     1       2.517  12.792   5.494  0.00  0.00    +0.000 F 
ENDBRANCH  23  24
ENDBRANCH  18  23
ENDBRANCH  17  19
ENDBRANCH   1  17
BRANCH   8  32
ATOM     32  C   UNL     1      10.221  11.541   6.595  0.00  0.00    +0.000 C 
BRANCH  32  33
ATOM     33  C   UNL     1      10.581  10.163   6.043  0.00  0.00    +0.000 C 
BRANCH  33  34
ATOM     34  C   UNL     1       9.880   9.045   6.789  0.00  0.00    +0.000 C 
ATOM     35  F   UNL     1       8.559   9.045   6.480  0.00  0.00    +0.000 F 
ATOM     36  F   UNL     1      10.374   7.844   6.401  0.00  0.00    +0.000 F 
ATOM     37  C   UNL     1      10.044   9.189   8.290  0.00  0.00    +0.000 C 
ENDBRANCH  33  34
ENDBRANCH  32  33
ENDBRANCH   8  32
TORSDOF 9
ENDMDL
MODEL 3
REMARK VINA RESULT:    -6.157      2.237      3.094
REMARK INTER + INTRA:         -11.324
REMARK INTER:                  -9.774
REMARK INTRA:                  -1.550
REMARK UNBOUND:                -1.927
REMARK  Name = 
REMARK  11 active torsions:
REMARK  status: ('A' for Active; 'I' for Inactive)
REMARK    1  A    between atoms: C_1  and  C_2
REMARK    2  A    between atoms: C_2  and  N_3
REMARK    3  A    between atoms: N_3  and  C_4
REMARK    4  A    between atoms: C_4  and  C_5
REMARK    5  A    between atoms: C_13  and  C_15
REMARK    6  A    between atoms: C_15  and  N_16
REMARK    7  A    between atoms: C_21  and  C_23
REMARK    8  A    between atoms: N_29  and  C_32
REMARK    9  A    between atoms: C_32  and  C_33
REMARK   10  A    between atoms: C_33  and  C_34
REMARK   11  A    between atoms: C_34  and  C_37
REMARK                            x       y       z     vdW  Elec       q    Type
REMARK                         _______ _______ _______ _____ _____    ______ ____
ROOT
ATOM      1  N   UNL     1       6.967  13.234   8.285  0.00  0.00    +0.000 N 
ATOM      2  C   UNL     1       7.378  12.978   6.971  0.00  0.00    +0.000 A 
ATOM      3  C   UNL     1       8.102  11.801   6.999  0.00  0.00    +0.000 A 
ATOM      4  C   UNL     1       8.582  11.343   5.814  0.00  0.00    +0.000 A 
ATOM      5  N   UNL     1       8.378  12.036   4.676  0.00  0.00    +0.000 NA
ATOM      6  C   UNL     1       7.673  13.205   4.750  0.00  0.00    +0.000 A 
ATOM      7  N   UNL     1       7.122  13.704   5.878  0.00  0.00    +0.000 NA
ATOM      8  N   UNL     1       8.165  11.327   8.314  0.00  0.00    +0.000 N 
ATOM      9  C   UNL     1       7.489  12.251   9.136  0.00  0.00    +0.000 A 
ATOM     10  O   UNL     1       7.354  12.196  10.347  0.00  0.00    +0.000 OA
ENDROOT
BRANCH   6  11
ATOM     11  C   UNL     1       7.522  13.967   3.490  0.00  0.00    +0.000 A 
ATOM     12  C   UNL     1       7.608  13.325   2.236  0.00  0.00    +0.000 A 
ATOM     13  C   UNL     1       7.479  14.028   1.034  0.00  0.00    +0.000 A 
ATOM     14  C   UNL     1       7.263  15.402   1.056  0.00  0.00    +0.000 A 
ATOM     15  C   UNL     1       7.179  16.066   2.276  0.00  0.00    +0.000 A 
ATOM     16  C   UNL     1       7.308  15.358   3.477  0.00  0.00    +0.000 A 
ENDBRANCH   6  11
BRANCH   1  17
ATOM     17  C   UNL     1       6.179  14.359   8.716  0.00  0.00    +0.000 C 
BRANCH  17  19
ATOM     18  N   UNL     1       3.733  13.749   8.417  0.00  0.00    +0.000 N 
ATOM     19  C   UNL     1       4.833  13.876   9.270  0.00  0.00    +0.000 C 
ATOM     20  O   UNL     1       4.775  13.603  10.473  0.00  0.00    +0.000 OA
BRANCH  18  22
ATOM     21  C   UNL     1       1.542  14.432   9.627  0.00  0.00    +0.000 C 
ATOM     22  C   UNL     1       2.393  13.387   8.920  0.00  0.00    +0.000 C 
ENDBRANCH  18  22
BRANCH  18  23
ATOM     23  C   UNL     1       3.807  13.924   6.955  0.00  0.00    +0.000 C 
BRANCH  23  24
ATOM     24  C   UNL     1       2.530  14.310   6.248  0.00  0.00    +0.000 A 
ATOM     25  C   UNL     1       1.692  13.433   5.558  0.00  0.00    +0.000 A 
ATOM     26  F   UNL     1       1.929  12.115   5.557  0.00  0.00    +0.000 F 
ATOM     27  C   UNL     1       0.584  13.887   4.837  0.00  0.00    +0.000 A 
ATOM     28  C   UNL     1       0.272  15.244   4.808  0.00  0.00    +0.000 A 
ATOM     29  C   UNL     1       1.060  16.136   5.526  0.00  0.00    +0.000 A 
ATOM     30  C   UNL     1       2.169  15.667   6.234  0.00  0.00    +0.000 A 
ATOM     31  F   UNL     1       2.913  16.555   6.908  0.00  0.00    +0.000 F 
ENDBRANCH  23  24
ENDBRANCH  18  23
ENDBRANCH  17  19
ENDBRANCH   1  17
BRANCH   8  32
ATOM     32  C   UNL     1       8.791  10.101   8.765  0.00  0.00    +0.000 C 
BRANCH  32  33
ATOM     33  C   UNL     1       7.799   8.939   8.710  0.00  0.00    +0.000 C 
BRANCH  33  34
ATOM     34  C   UNL     1       7.658   8.243  10.049  0.00  0.00    +0.000 C 
ATOM     35  F   UNL     1       6.345   8.110  10.361  0.00  0.00    +0.000 F 
ATOM     36  F   UNL     1       8.173   6.991   9.979  0.00  0.00    +0.000 F 
ATOM     37  C   UNL     1       8.362   9.009  11.153  0.00  0.00    +0.000 C 
ENDBRANCH  33  34
ENDBRANCH  32  33
ENDBRANCH   8  32
TORSDOF 9
ENDMDL
MODEL 4
REMARK VINA RESULT:    -6.126      3.614      5.180
REMARK INTER + INTRA:         -11.277
REMARK INTER:                  -8.669
REMARK INTRA:                  -2.607
REMARK UNBOUND:                -1.927
REMARK  Name = 
REMARK  11 active torsions:
REMARK  status: ('A' for Active; 'I' for Inactive)
REMARK    1  A    between atoms: C_1  and  C_2
REMARK    2  A    between atoms: C_2  and  N_3
REMARK    3  A    between atoms: N_3  and  C_4
REMARK    4  A    between atoms: C_4  and  C_5
REMARK    5  A    between atoms: C_13  and  C_15
REMARK    6  A    between atoms: C_15  and  N_16
REMARK    7  A    between atoms: C_21  and  C_23
REMARK    8  A    between atoms: N_29  and  C_32
REMARK    9  A    between atoms: C_32  and  C_33
REMARK   10  A    between atoms: C_33  and  C_34
REMARK   11  A    between atoms: C_34  and  C_37
REMARK                            x       y       z     vdW  Elec       q    Type
REMARK                         _______ _______ _______ _____ _____    ______ ____
ROOT
ATOM      1  N   UNL     1       6.558  14.057   9.102  0.00  0.00    +0.000 N 
ATOM      2  C   UNL     1       5.912  13.866   7.874  0.00  0.00    +0.000 A 
ATOM      3  C   UNL     1       6.843  13.315   7.013  0.00  0.00    +0.000 A 
ATOM      4  C   UNL     1       6.423  13.020   5.757  0.00  0.00    +0.000 A 
ATOM      5  N   UNL     1       5.158  13.286   5.375  0.00  0.00    +0.000 NA
ATOM      6  C   UNL     1       4.315  13.858   6.287  0.00  0.00    +0.000 A 
ATOM      7  N   UNL     1       4.641  14.139   7.568  0.00  0.00    +0.000 NA
ATOM      8  N   UNL     1       8.066  13.177   7.679  0.00  0.00    +0.000 N 
ATOM      9  C   UNL     1       7.903  13.685   8.985  0.00  0.00    +0.000 A 
ATOM     10  O   UNL     1       8.755  13.759   9.855  0.00  0.00    +0.000 OA
ENDROOT
BRANCH   6  11
ATOM     11  C   UNL     1       2.954  14.192   5.812  0.00  0.00    +0.000 A 
ATOM     12  C   UNL     1       2.070  13.185   5.370  0.00  0.00    +0.000 A 
ATOM     13  C   UNL     1       0.783  13.481   4.907  0.00  0.00    +0.000 A 
ATOM     14  C   UNL     1       0.347  14.801   4.871  0.00  0.00    +0.000 A 
ATOM     15  C   UNL     1       1.197  15.819   5.296  0.00  0.00    +0.000 A 
ATOM     16  C   UNL     1       2.484  15.518   5.758  0.00  0.00    +0.000 A 
ENDBRANCH   6  11
BRANCH   1  17
ATOM     17  C   UNL     1       5.959  14.604  10.292  0.00  0.00    +0.000 C 
BRANCH  17  19
ATOM     18  N   UNL     1       3.749  13.896  11.320  0.00  0.00    +0.000 N 
ATOM     19  C   UNL     1       5.054  13.557  10.953  0.00  0.00    +0.000 C 
ATOM     20  O   UNL     1       5.521  12.428  11.129  0.00  0.00    +0.000 OA
BRANCH  18  22
ATOM     21  C   UNL     1       2.682  13.112  13.552  0.00  0.00    +0.000 C 
ATOM     22  C   UNL     1       2.875  12.956  12.051  0.00  0.00    +0.000 C 
ENDBRANCH  18  22
BRANCH  18  23
ATOM     23  C   UNL     1       3.115  15.185  10.990  0.00  0.00    +0.000 C 
BRANCH  23  24
ATOM     24  C   UNL     1       1.812  15.130  10.228  0.00  0.00    +0.000 A 
ATOM     25  C   UNL     1       1.496  14.200   9.237  0.00  0.00    +0.000 A 
ATOM     26  F   UNL     1       2.329  13.192   8.949  0.00  0.00    +0.000 F 
ATOM     27  C   UNL     1       0.310  14.283   8.501  0.00  0.00    +0.000 A 
ATOM     28  C   UNL     1      -0.607  15.298   8.758  0.00  0.00    +0.000 A 
ATOM     29  C   UNL     1      -0.342  16.210   9.773  0.00  0.00    +0.000 A 
ATOM     30  C   UNL     1       0.851  16.119  10.493  0.00  0.00    +0.000 A 
ATOM     31  F   UNL     1       1.080  17.020  11.459  0.00  0.00    +0.000 F 
ENDBRANCH  23  24
ENDBRANCH  18  23
ENDBRANCH  17  19
ENDBRANCH   1  17
BRANCH   8  32
ATOM     32  C   UNL     1       9.283  12.599   7.147  0.00  0.00    +0.000 C 
BRANCH  32  33
ATOM     33  C   UNL     1       9.464  11.167   7.651  0.00  0.00    +0.000 C 
BRANCH  33  34
ATOM     34  C   UNL     1       9.348  10.148   6.536  0.00  0.00    +0.000 C 
ATOM     35  F   UNL     1       8.580  10.647   5.536  0.00  0.00    +0.000 F 
ATOM     36  F   UNL     1      10.570   9.898   6.005  0.00  0.00    +0.000 F 
ATOM     37  C   UNL     1       8.746   8.847   7.031  0.00  0.00    +0.000 C 
ENDBRANCH  33  34
ENDBRANCH  32  33
ENDBRANCH   8  32
TORSDOF 9
ENDMDL
MODEL 5
REMARK VINA RESULT:    -6.016      2.010      2.678
REMARK INTER + INTRA:         -11.109
REMARK INTER:                  -9.633
REMARK INTRA:                  -1.476
REMARK UNBOUND:                -1.927
REMARK  Name = 
REMARK  11 active torsions:
REMARK  status: ('A' for Active; 'I' for Inactive)
REMARK    1  A    between atoms: C_1  and  C_2
REMARK    2  A    between atoms: C_2  and  N_3
REMARK    3  A    between atoms: N_3  and  C_4
REMARK    4  A    between atoms: C_4  and  C_5
REMARK    5  A    between atoms: C_13  and  C_15
REMARK    6  A    between atoms: C_15  and  N_16
REMARK    7  A    between atoms: C_21  and  C_23
REMARK    8  A    between atoms: N_29  and  C_32
REMARK    9  A    between atoms: C_32  and  C_33
REMARK   10  A    between atoms: C_33  and  C_34
REMARK   11  A    between atoms: C_34  and  C_37
REMARK                            x       y       z     vdW  Elec       q    Type
REMARK                         _______ _______ _______ _____ _____    ______ ____
ROOT
ATOM      1  N   UNL     1       7.024  13.659   7.054  0.00  0.00    +0.000 N 
ATOM      2  C   UNL     1       7.323  13.431   5.705  0.00  0.00    +0.000 A 
ATOM      3  C   UNL     1       7.995  12.224   5.642  0.00  0.00    +0.000 A 
ATOM      4  C   UNL     1       8.365  11.787   4.411  0.00  0.00    +0.000 A 
ATOM      5  N   UNL     1       8.105  12.525   3.313  0.00  0.00    +0.000 NA
ATOM      6  C   UNL     1       7.459  13.719   3.476  0.00  0.00    +0.000 A 
ATOM      7  N   UNL     1       7.018  14.203   4.658  0.00  0.00    +0.000 NA
ATOM      8  N   UNL     1       8.137  11.705   6.933  0.00  0.00    +0.000 N 
ATOM      9  C   UNL     1       7.565  12.628   7.833  0.00  0.00    +0.000 A 
ATOM     10  O   UNL     1       7.520  12.538   9.048  0.00  0.00    +0.000 OA
ENDROOT
BRANCH   6  11
ATOM     11  C   UNL     1       7.248  14.529   2.255  0.00  0.00    +0.000 A 
ATOM     12  C   UNL     1       7.198  15.938   2.316  0.00  0.00    +0.000 A 
ATOM     13  C   UNL     1       6.989  16.721   1.176  0.00  0.00    +0.000 A 
ATOM     14  C   UNL     1       6.821  16.110  -0.061  0.00  0.00    +0.000 A 
ATOM     15  C   UNL     1       6.861  14.722  -0.155  0.00  0.00    +0.000 A 
ATOM     16  C   UNL     1       7.070  13.942   0.989  0.00  0.00    +0.000 A 
ENDBRANCH   6  11
BRANCH   1  17
ATOM     17  C   UNL     1       6.322  14.801   7.579  0.00  0.00    +0.000 C 
BRANCH  17  19
ATOM     18  N   UNL     1       3.978  13.880   7.902  0.00  0.00    +0.000 N 
ATOM     19  C   UNL     1       5.166  14.340   8.476  0.00  0.00    +0.000 C 
ATOM     20  O   UNL     1       5.340  14.385   9.698  0.00  0.00    +0.000 OA
BRANCH  18  22
ATOM     21  C   UNL     1       1.892  14.617   9.258  0.00  0.00    +0.000 C 
ATOM     22  C   UNL     1       2.803  13.522   8.722  0.00  0.00    +0.000 C 
ENDBRANCH  18  22
BRANCH  18  23
ATOM     23  C   UNL     1       3.795  13.675   6.455  0.00  0.00    +0.000 C 
BRANCH  23  24
ATOM     24  C   UNL     1       2.567  14.291   5.827  0.00  0.00    +0.000 A 
ATOM     25  C   UNL     1       2.279  15.656   5.789  0.00  0.00    +0.000 A 
ATOM     26  F   UNL     1       3.158  16.557   6.247  0.00  0.00    +0.000 F 
ATOM     27  C   UNL     1       1.067  16.139   5.286  0.00  0.00    +0.000 A 
ATOM     28  C   UNL     1       0.114  15.258   4.782  0.00  0.00    +0.000 A 
ATOM     29  C   UNL     1       0.394  13.897   4.761  0.00  0.00    +0.000 A 
ATOM     30  C   UNL     1       1.606  13.430   5.276  0.00  0.00    +0.000 A 
ATOM     31  F   UNL     1       1.840  12.110   5.249  0.00  0.00    +0.000 F 
ENDBRANCH  23  24
ENDBRANCH  18  23
ENDBRANCH  17  19
ENDBRANCH   1  17
BRANCH   8  32
ATOM     32  C   UNL     1       8.741  10.439   7.298  0.00  0.00    +0.000 C 
BRANCH  32  33
ATOM     33  C   UNL     1      10.239  10.609   7.545  0.00  0.00    +0.000 C 
BRANCH  33  34
ATOM     34  C   UNL     1      11.073   9.726   6.639  0.00  0.00    +0.000 C 
ATOM     35  F   UNL     1      11.192  10.304   5.418  0.00  0.00    +0.000 F 
ATOM     36  F   UNL     1      12.328   9.601   7.138  0.00  0.00    +0.000 F 
ATOM     37  C   UNL     1      10.460   8.348   6.485  0.00  0.00    +0.000 C 
ENDBRANCH  33  34
ENDBRANCH  32  33
ENDBRANCH   8  32
TORSDOF 9
ENDMDL
MODEL 6
REMARK VINA RESULT:    -6.002      4.176      9.026
REMARK INTER + INTRA:         -11.086
REMARK INTER:                  -8.763
REMARK INTRA:                  -2.323
REMARK UNBOUND:                -1.927
REMARK  Name = 
REMARK  11 active torsions:
REMARK  status: ('A' for Active; 'I' for Inactive)
REMARK    1  A    between atoms: C_1  and  C_2
REMARK    2  A    between atoms: C_2  and  N_3
REMARK    3  A    between atoms: N_3  and  C_4
REMARK    4  A    between atoms: C_4  and  C_5
REMARK    5  A    between atoms: C_13  and  C_15
REMARK    6  A    between atoms: C_15  and  N_16
REMARK    7  A    between atoms: C_21  and  C_23
REMARK    8  A    between atoms: N_29  and  C_32
REMARK    9  A    between atoms: C_32  and  C_33
REMARK   10  A    between atoms: C_33  and  C_34
REMARK   11  A    between atoms: C_34  and  C_37
REMARK                            x       y       z     vdW  Elec       q    Type
REMARK                         _______ _______ _______ _____ _____    ______ ____
ROOT
ATOM      1  N   UNL     1      12.352  11.320   5.517  0.00  0.00    +0.000 N 
ATOM      2  C   UNL     1      11.968  10.009   5.830  0.00  0.00    +0.000 A 
ATOM      3  C   UNL     1      10.760  10.094   6.497  0.00  0.00    +0.000 A 
ATOM      4  C   UNL     1      10.182   8.926   6.878  0.00  0.00    +0.000 A 
ATOM      5  N   UNL     1      10.789   7.747   6.634  0.00  0.00    +0.000 NA
ATOM      6  C   UNL     1      11.996   7.763   5.992  0.00  0.00    +0.000 A 
ATOM      7  N   UNL     1      12.615   8.877   5.540  0.00  0.00    +0.000 NA
ATOM      8  N   UNL     1      10.393  11.438   6.622  0.00  0.00    +0.000 N 
ATOM      9  C   UNL     1      11.416  12.218   6.045  0.00  0.00    +0.000 A 
ATOM     10  O   UNL     1      11.467  13.435   5.986  0.00  0.00    +0.000 OA
ENDROOT
BRANCH   6  11
ATOM     11  C   UNL     1      12.660   6.455   5.799  0.00  0.00    +0.000 A 
ATOM     12  C   UNL     1      13.561   6.247   4.732  0.00  0.00    +0.000 A 
ATOM     13  C   UNL     1      14.191   5.015   4.525  0.00  0.00    +0.000 A 
ATOM     14  C   UNL     1      13.931   3.952   5.384  0.00  0.00    +0.000 A 
ATOM     15  C   UNL     1      13.044   4.123   6.443  0.00  0.00    +0.000 A 
ATOM     16  C   UNL     1      12.416   5.359   6.646  0.00  0.00    +0.000 A 
ENDBRANCH   6  11
BRANCH   1  17
ATOM     17  C   UNL     1      13.550  11.700   4.815  0.00  0.00    +0.000 C 
BRANCH  17  19
ATOM     18  N   UNL     1      12.792  11.910   2.401  0.00  0.00    +0.000 N 
ATOM     19  C   UNL     1      13.495  11.189   3.370  0.00  0.00    +0.000 C 
ATOM     20  O   UNL     1      14.098  10.143   3.111  0.00  0.00    +0.000 OA
BRANCH  18  22
ATOM     21  C   UNL     1      13.710  11.666  -0.015  0.00  0.00    +0.000 C 
ATOM     22  C   UNL     1      12.626  11.407   1.022  0.00  0.00    +0.000 C 
ENDBRANCH  18  22
BRANCH  18  23
ATOM     23  C   UNL     1      12.191  13.233   2.642  0.00  0.00    +0.000 C 
BRANCH  23  24
ATOM     24  C   UNL     1      10.884  13.528   1.944  0.00  0.00    +0.000 A 
ATOM     25  C   UNL     1      10.722  14.407   0.873  0.00  0.00    +0.000 A 
ATOM     26  F   UNL     1      11.779  15.005   0.308  0.00  0.00    +0.000 F 
ATOM     27  C   UNL     1       9.460  14.707   0.351  0.00  0.00    +0.000 A 
ATOM     28  C   UNL     1       8.320  14.110   0.882  0.00  0.00    +0.000 A 
ATOM     29  C   UNL     1       8.455  13.192   1.917  0.00  0.00    +0.000 A 
ATOM     30  C   UNL     1       9.722  12.910   2.433  0.00  0.00    +0.000 A 
ATOM     31  F   UNL     1       9.816  12.027   3.438  0.00  0.00    +0.000 F 
ENDBRANCH  23  24
ENDBRANCH  18  23
ENDBRANCH  17  19
ENDBRANCH   1  17
BRANCH   8  32
ATOM     32  C   UNL     1       9.175  11.953   7.215  0.00  0.00    +0.000 C 
BRANCH  32  33
ATOM     33  C   UNL     1       7.970  11.637   6.330  0.00  0.00    +0.000 C 
BRANCH  33  34
ATOM     34  C   UNL     1       7.348  12.887   5.740  0.00  0.00    +0.000 C 
ATOM     35  F   UNL     1       8.323  13.763   5.392  0.00  0.00    +0.000 F 
ATOM     36  F   UNL     1       6.673  12.580   4.605  0.00  0.00    +0.000 F 
ATOM     37  C   UNL     1       6.400  13.553   6.719  0.00  0.00    +0.000 C 
ENDBRANCH  33  34
ENDBRANCH  32  33
ENDBRANCH   8  32
TORSDOF 9
ENDMDL
MODEL 7
REMARK VINA RESULT:    -5.987      4.715     10.673
REMARK INTER + INTRA:         -11.064
REMARK INTER:                  -8.841
REMARK INTRA:                  -2.223
REMARK UNBOUND:                -1.927
REMARK  Name = 
REMARK  11 active torsions:
REMARK  status: ('A' for Active; 'I' for Inactive)
REMARK    1  A    between atoms: C_1  and  C_2
REMARK    2  A    between atoms: C_2  and  N_3
REMARK    3  A    between atoms: N_3  and  C_4
REMARK    4  A    between atoms: C_4  and  C_5
REMARK    5  A    between atoms: C_13  and  C_15
REMARK    6  A    between atoms: C_15  and  N_16
REMARK    7  A    between atoms: C_21  and  C_23
REMARK    8  A    between atoms: N_29  and  C_32
REMARK    9  A    between atoms: C_32  and  C_33
REMARK   10  A    between atoms: C_33  and  C_34
REMARK   11  A    between atoms: C_34  and  C_37
REMARK                            x       y       z     vdW  Elec       q    Type
REMARK                         _______ _______ _______ _____ _____    ______ ____
ROOT
ATOM      1  N   UNL     1      11.517  10.319   5.181  0.00  0.00    +0.000 N 
ATOM      2  C   UNL     1      10.427  10.320   6.060  0.00  0.00    +0.000 A 
ATOM      3  C   UNL     1       9.730  11.493   5.834  0.00  0.00    +0.000 A 
ATOM      4  C   UNL     1       8.607  11.695   6.568  0.00  0.00    +0.000 A 
ATOM      5  N   UNL     1       8.219  10.794   7.493  0.00  0.00    +0.000 NA
ATOM      6  C   UNL     1       8.986   9.676   7.666  0.00  0.00    +0.000 A 
ATOM      7  N   UNL     1      10.090   9.378   6.945  0.00  0.00    +0.000 NA
ATOM      8  N   UNL     1      10.380  12.233   4.840  0.00  0.00    +0.000 N 
ATOM      9  C   UNL     1      11.532  11.518   4.456  0.00  0.00    +0.000 A 
ATOM     10  O   UNL     1      12.366  11.856   3.633  0.00  0.00    +0.000 OA
ENDROOT
BRANCH   6  11
ATOM     11  C   UNL     1       8.563   8.741   8.733  0.00  0.00    +0.000 A 
ATOM     12  C   UNL     1       9.462   7.795   9.271  0.00  0.00    +0.000 A 
ATOM     13  C   UNL     1       9.079   6.897  10.272  0.00  0.00    +0.000 A 
ATOM     14  C   UNL     1       7.778   6.920  10.762  0.00  0.00    +0.000 A 
ATOM     15  C   UNL     1       6.865   7.838  10.250  0.00  0.00    +0.000 A 
ATOM     16  C   UNL     1       7.253   8.736   9.247  0.00  0.00    +0.000 A 
ENDBRANCH   6  11
BRANCH   1  17
ATOM     17  C   UNL     1      12.508   9.281   5.070  0.00  0.00    +0.000 C 
BRANCH  17  19
ATOM     18  N   UNL     1      13.329   8.303   7.264  0.00  0.00    +0.000 N 
ATOM     19  C   UNL     1      13.431   9.304   6.295  0.00  0.00    +0.000 C 
ATOM     20  O   UNL     1      14.255  10.221   6.371  0.00  0.00    +0.000 OA
BRANCH  18  22
ATOM     21  C   UNL     1      13.427   8.216   9.856  0.00  0.00    +0.000 C 
ATOM     22  C   UNL     1      14.124   8.338   8.508  0.00  0.00    +0.000 C 
ENDBRANCH  18  22
BRANCH  18  23
ATOM     23  C   UNL     1      12.463   7.118   7.129  0.00  0.00    +0.000 C 
BRANCH  23  24
ATOM     24  C   UNL     1      13.150   5.790   6.919  0.00  0.00    +0.000 A 
ATOM     25  C   UNL     1      13.432   4.860   7.921  0.00  0.00    +0.000 A 
ATOM     26  F   UNL     1      13.010   5.054   9.177  0.00  0.00    +0.000 F 
ATOM     27  C   UNL     1      14.169   3.700   7.663  0.00  0.00    +0.000 A 
ATOM     28  C   UNL     1      14.627   3.430   6.376  0.00  0.00    +0.000 A 
ATOM     29  C   UNL     1      14.318   4.313   5.348  0.00  0.00    +0.000 A 
ATOM     30  C   UNL     1      13.589   5.471   5.624  0.00  0.00    +0.000 A 
ATOM     31  F   UNL     1      13.317   6.307   4.611  0.00  0.00    +0.000 F 
ENDBRANCH  23  24
ENDBRANCH  18  23
ENDBRANCH  17  19
ENDBRANCH   1  17
BRANCH   8  32
ATOM     32  C   UNL     1       9.949  13.498   4.280  0.00  0.00    +0.000 C 
BRANCH  32  33
ATOM     33  C   UNL     1       9.269  13.284   2.928  0.00  0.00    +0.000 C 
BRANCH  33  34
ATOM     34  C   UNL     1       7.760  13.213   3.049  0.00  0.00    +0.000 C 
ATOM     35  F   UNL     1       7.194  13.370   1.828  0.00  0.00    +0.000 F 
ATOM     36  F   UNL     1       7.387  11.991   3.501  0.00  0.00    +0.000 F 
ATOM     37  C   UNL     1       7.226  14.276   3.991  0.00  0.00    +0.000 C 
ENDBRANCH  33  34
ENDBRANCH  32  33
ENDBRANCH   8  32
TORSDOF 9
ENDMDL
MODEL 8
REMARK VINA RESULT:    -5.962      1.869      2.723
REMARK INTER + INTRA:         -11.026
REMARK INTER:                  -9.459
REMARK INTRA:                  -1.567
REMARK UNBOUND:                -1.927
REMARK  Name = 
REMARK  11 active torsions:
REMARK  status: ('A' for Active; 'I' for Inactive)
REMARK    1  A    between atoms: C_1  and  C_2
REMARK    2  A    between atoms: C_2  and  N_3
REMARK    3  A    between atoms: N_3  and  C_4
REMARK    4  A    between atoms: C_4  and  C_5
REMARK    5  A    between atoms: C_13  and  C_15
REMARK    6  A    between atoms: C_15  and  N_16
REMARK    7  A    between atoms: C_21  and  C_23
REMARK    8  A    between atoms: N_29  and  C_32
REMARK    9  A    between atoms: C_32  and  C_33
REMARK   10  A    between atoms: C_33  and  C_34
REMARK   11  A    between atoms: C_34  and  C_37
REMARK                            x       y       z     vdW  Elec       q    Type
REMARK                         _______ _______ _______ _____ _____    ______ ____
ROOT
ATOM      1  N   UNL     1       6.235  13.707   6.021  0.00  0.00    +0.000 N 
ATOM      2  C   UNL     1       7.061  13.459   4.918  0.00  0.00    +0.000 A 
ATOM      3  C   UNL     1       8.095  12.655   5.363  0.00  0.00    +0.000 A 
ATOM      4  C   UNL     1       9.013  12.265   4.443  0.00  0.00    +0.000 A 
ATOM      5  N   UNL     1       8.922  12.677   3.163  0.00  0.00    +0.000 NA
ATOM      6  C   UNL     1       7.880  13.494   2.820  0.00  0.00    +0.000 A 
ATOM      7  N   UNL     1       6.900  13.888   3.663  0.00  0.00    +0.000 NA
ATOM      8  N   UNL     1       7.937  12.413   6.732  0.00  0.00    +0.000 N 
ATOM      9  C   UNL     1       6.789  13.111   7.162  0.00  0.00    +0.000 A 
ATOM     10  O   UNL     1       6.344  13.164   8.296  0.00  0.00    +0.000 OA
ENDROOT
BRANCH   6  11
ATOM     11  C   UNL     1       7.849  13.975   1.421  0.00  0.00    +0.000 A 
ATOM     12  C   UNL     1       6.679  13.865   0.640  0.00  0.00    +0.000 A 
ATOM     13  C   UNL     1       6.632  14.304  -0.688  0.00  0.00    +0.000 A 
ATOM     14  C   UNL     1       7.762  14.865  -1.271  0.00  0.00    +0.000 A 
ATOM     15  C   UNL     1       8.934  14.985  -0.529  0.00  0.00    +0.000 A 
ATOM     16  C   UNL     1       8.976  14.543   0.800  0.00  0.00    +0.000 A 
ENDBRANCH   6  11
BRANCH   1  17
ATOM     17  C   UNL     1       5.032  14.498   6.011  0.00  0.00    +0.000 C 
BRANCH  17  19
ATOM     18  N   UNL     1       2.580  13.916   6.317  0.00  0.00    +0.000 N 
ATOM     19  C   UNL     1       3.816  13.600   5.748  0.00  0.00    +0.000 C 
ATOM     20  O   UNL     1       3.979  12.618   5.018  0.00  0.00    +0.000 OA
BRANCH  18  22
ATOM     21  C   UNL     1       0.978  12.152   7.344  0.00  0.00    +0.000 C 
ATOM     22  C   UNL     1       1.407  13.030   6.177  0.00  0.00    +0.000 C 
ENDBRANCH  18  22
BRANCH  18  23
ATOM     23  C   UNL     1       2.319  15.157   7.068  0.00  0.00    +0.000 C 
BRANCH  23  24
ATOM     24  C   UNL     1       1.062  15.917   6.716  0.00  0.00    +0.000 A 
ATOM     25  C   UNL     1      -0.162  15.803   7.376  0.00  0.00    +0.000 A 
ATOM     26  F   UNL     1      -0.283  15.045   8.474  0.00  0.00    +0.000 F 
ATOM     27  C   UNL     1      -1.309  16.460   6.921  0.00  0.00    +0.000 A 
ATOM     28  C   UNL     1      -1.251  17.275   5.793  0.00  0.00    +0.000 A 
ATOM     29  C   UNL     1      -0.034  17.447   5.144  0.00  0.00    +0.000 A 
ATOM     30  C   UNL     1       1.100  16.776   5.607  0.00  0.00    +0.000 A 
ATOM     31  F   UNL     1       2.256  16.957   4.951  0.00  0.00    +0.000 F 
ENDBRANCH  23  24
ENDBRANCH  18  23
ENDBRANCH  17  19
ENDBRANCH   1  17
BRANCH   8  32
ATOM     32  C   UNL     1       8.778  11.581   7.568  0.00  0.00    +0.000 C 
BRANCH  32  33
ATOM     33  C   UNL     1       8.215  10.163   7.656  0.00  0.00    +0.000 C 
BRANCH  33  34
ATOM     34  C   UNL     1       9.219   9.119   7.211  0.00  0.00    +0.000 C 
ATOM     35  F   UNL     1       9.388   8.197   8.191  0.00  0.00    +0.000 F 
ATOM     36  F   UNL     1       8.751   8.456   6.125  0.00  0.00    +0.000 F 
ATOM     37  C   UNL     1      10.559   9.743   6.873  0.00  0.00    +0.000 C 
ENDBRANCH  33  34
ENDBRANCH  32  33
ENDBRANCH   8  32
TORSDOF 9
ENDMDL
MODEL 9
REMARK VINA RESULT:    -5.920      1.544      2.128
REMARK INTER + INTRA:         -10.962
REMARK INTER:                  -9.258
REMARK INTRA:                  -1.704
REMARK UNBOUND:                -1.927
REMARK  Name = 
REMARK  11 active torsions:
REMARK  status: ('A' for Active; 'I' for Inactive)
REMARK    1  A    between atoms: C_1  and  C_2
REMARK    2  A    between atoms: C_2  and  N_3
REMARK    3  A    between atoms: N_3  and  C_4
REMARK    4  A    between atoms: C_4  and  C_5
REMARK    5  A    between atoms: C_13  and  C_15
REMARK    6  A    between atoms: C_15  and  N_16
REMARK    7  A    between atoms: C_21  and  C_23
REMARK    8  A    between atoms: N_29  and  C_32
REMARK    9  A    between atoms: C_32  and  C_33
REMARK   10  A    between atoms: C_33  and  C_34
REMARK   11  A    between atoms: C_34  and  C_37
REMARK                            x       y       z     vdW  Elec       q    Type
REMARK                         _______ _______ _______ _____ _____    ______ ____
ROOT
ATOM      1  N   UNL     1       6.598  13.571   5.953  0.00  0.00    +0.000 N 
ATOM      2  C   UNL     1       7.347  13.340   4.792  0.00  0.00    +0.000 A 
ATOM      3  C   UNL     1       8.353  12.454   5.134  0.00  0.00    +0.000 A 
ATOM      4  C   UNL     1       9.196  12.066   4.143  0.00  0.00    +0.000 A 
ATOM      5  N   UNL     1       9.060  12.555   2.894  0.00  0.00    +0.000 NA
ATOM      6  C   UNL     1       8.052  13.448   2.656  0.00  0.00    +0.000 A 
ATOM      7  N   UNL     1       7.145  13.849   3.574  0.00  0.00    +0.000 NA
ATOM      8  N   UNL     1       8.254  12.144   6.494  0.00  0.00    +0.000 N 
ATOM      9  C   UNL     1       7.176  12.880   7.026  0.00  0.00    +0.000 A 
ATOM     10  O   UNL     1       6.796  12.894   8.185  0.00  0.00    +0.000 OA
ENDROOT
BRANCH   6  11
ATOM     11  C   UNL     1       7.975  14.009   1.289  0.00  0.00    +0.000 A 
ATOM     12  C   UNL     1       9.092  14.635   0.695  0.00  0.00    +0.000 A 
ATOM     13  C   UNL     1       9.037  15.181  -0.591  0.00  0.00    +0.000 A 
ATOM     14  C   UNL     1       7.854  15.118  -1.320  0.00  0.00    +0.000 A 
ATOM     15  C   UNL     1       6.732  14.512  -0.761  0.00  0.00    +0.000 A 
ATOM     16  C   UNL     1       6.792  13.966   0.528  0.00  0.00    +0.000 A 
ENDBRANCH   6  11
BRANCH   1  17
ATOM     17  C   UNL     1       5.445  14.428   6.054  0.00  0.00    +0.000 C 
BRANCH  17  19
ATOM     18  N   UNL     1       2.946  14.037   6.266  0.00  0.00    +0.000 N 
ATOM     19  C   UNL     1       4.172  13.636   5.730  0.00  0.00    +0.000 C 
ATOM     20  O   UNL     1       4.282  12.660   4.981  0.00  0.00    +0.000 OA
BRANCH  18  22
ATOM     21  C   UNL     1       0.679  13.707   5.047  0.00  0.00    +0.000 C 
ATOM     22  C   UNL     1       1.712  13.250   6.067  0.00  0.00    +0.000 C 
ENDBRANCH  18  22
BRANCH  18  23
ATOM     23  C   UNL     1       2.758  15.278   7.039  0.00  0.00    +0.000 C 
BRANCH  23  24
ATOM     24  C   UNL     1       1.982  15.168   8.330  0.00  0.00    +0.000 A 
ATOM     25  C   UNL     1       0.669  15.599   8.522  0.00  0.00    +0.000 A 
ATOM     26  F   UNL     1      -0.054  16.077   7.501  0.00  0.00    +0.000 F 
ATOM     27  C   UNL     1       0.057  15.561   9.779  0.00  0.00    +0.000 A 
ATOM     28  C   UNL     1       0.748  15.064  10.881  0.00  0.00    +0.000 A 
ATOM     29  C   UNL     1       2.040  14.581  10.710  0.00  0.00    +0.000 A 
ATOM     30  C   UNL     1       2.639  14.635   9.450  0.00  0.00    +0.000 A 
ATOM     31  F   UNL     1       3.890  14.170   9.322  0.00  0.00    +0.000 F 
ENDBRANCH  23  24
ENDBRANCH  18  23
ENDBRANCH  17  19
ENDBRANCH   1  17
BRANCH   8  32
ATOM     32  C   UNL     1       9.088  11.220   7.235  0.00  0.00    +0.000 C 
BRANCH  32  33
ATOM     33  C   UNL     1       8.571   9.789   7.085  0.00  0.00    +0.000 C 
BRANCH  33  34
ATOM     34  C   UNL     1       8.338   9.120   8.424  0.00  0.00    +0.000 C 
ATOM     35  F   UNL     1       7.091   8.588   8.461  0.00  0.00    +0.000 F 
ATOM     36  F   UNL     1       9.208   8.093   8.589  0.00  0.00    +0.000 F 
ATOM     37  C   UNL     1       8.501  10.098   9.572  0.00  0.00    +0.000 C 
ENDBRANCH  33  34
ENDBRANCH  32  33
ENDBRANCH   8  32
TORSDOF 9
ENDMDL
