MODEL 1
REMARK VINA RESULT:    -5.741      0.000      0.000
REMARK INTER + INTRA:         -11.576
REMARK INTER:                  -8.426
REMARK INTRA:                  -3.150
REMARK UNBOUND:                -3.150
REMARK SMILES CCN(Cc1cc(F)ccc1F)C(=O)Cn1c(=O)n(C(F)F)c2cnc(-c3ccccc3)nc21
REMARK SMILES IDX 13 1 14 2 3 3 2 4 1 5 4 6 5 7 6 8 11 9 7 10 10 11 9 12 12 13
REMARK SMILES IDX 8 14 15 15 16 16 17 17 34 18 18 19 19 20 23 21 33 22 24 23
REMARK SMILES IDX 26 24 25 25 20 26 21 27 22 28 27 29 28 30 32 31 29 32 31 33
REMARK SMILES IDX 30 34
REMARK H PARENT
ROOT
ATOM      1  C   UNL     1       0.438  17.986   7.082  1.00  0.00     0.243 C 
ATOM      2  O   UNL     1      -0.694  18.347   7.421  1.00  0.00    -0.273 OA
ENDROOT
BRANCH   1   3
ATOM      3  N   UNL     1       0.661  17.380   5.843  1.00  0.00    -0.337 N 
BRANCH   3   4
ATOM      4  C   UNL     1       1.577  18.038   4.911  1.00  0.00     0.116 C 
ATOM      5  C   UNL     1       0.834  18.852   3.863  1.00  0.00     0.027 C 
ENDBRANCH   3   4
BRANCH   3   6
ATOM      6  C   UNL     1      -0.135  16.266   5.322  1.00  0.00     0.158 C 
BRANCH   6   7
ATOM      7  C   UNL     1       0.327  14.919   5.812  1.00  0.00     0.010 A 
ATOM      8  C   UNL     1       1.246  14.138   5.094  1.00  0.00     0.047 A 
ATOM      9  C   UNL     1      -0.212  14.386   6.990  1.00  0.00     0.128 A 
ATOM     10  C   UNL     1       1.619  12.884   5.570  1.00  0.00     0.123 A 
ATOM     11  C   UNL     1       0.164  13.131   7.465  1.00  0.00     0.042 A 
ATOM     12  C   UNL     1       1.089  12.374   6.751  1.00  0.00     0.042 A 
ATOM     13  F   UNL     1      -1.108  15.097   7.690  1.00  0.00    -0.207 F 
ATOM     14  F   UNL     1       2.500  12.153   4.876  1.00  0.00    -0.207 F 
ENDBRANCH   6   7
ENDBRANCH   3   6
ENDBRANCH   1   3
BRANCH   1  15
ATOM     15  C   UNL     1       1.659  18.235   7.984  1.00  0.00     0.229 C 
BRANCH  15  16
ATOM     16  N   UNL     1       1.894  17.104   8.841  1.00  0.00    -0.267 N 
ATOM     17  C   UNL     1       1.172  16.775   9.998  1.00  0.00     0.335 A 
ATOM     18  C   UNL     1       2.718  16.026   8.495  1.00  0.00     0.165 A 
ATOM     19  O   UNL     1       0.346  17.466  10.571  1.00  0.00    -0.247 OA
ATOM     20  N   UNL     1       1.595  15.500  10.374  1.00  0.00    -0.230 N 
ATOM     21  C   UNL     1       2.543  15.056   9.457  1.00  0.00     0.113 A 
ATOM     22  N   UNL     1       3.534  15.946   7.446  1.00  0.00    -0.208 NA
ATOM     23  C   UNL     1       3.273  13.919   9.327  1.00  0.00     0.144 A 
ATOM     24  C   UNL     1       4.219  14.782   7.380  1.00  0.00     0.161 A 
ATOM     25  N   UNL     1       4.126  13.768   8.289  1.00  0.00    -0.234 NA
BRANCH  20  26
ATOM     26  C   UNL     1       1.161  14.820  11.536  1.00  0.00     0.453 C 
ATOM     27  F   UNL     1       1.466  15.547  12.643  1.00  0.00    -0.185 F 
ATOM     28  F   UNL     1      -0.192  14.712  11.514  1.00  0.00    -0.185 F 
ENDBRANCH  20  26
BRANCH  24  29
ATOM     29  C   UNL     1       5.148  14.598   6.244  1.00  0.00     0.019 A 
ATOM     30  C   UNL     1       5.785  15.694   5.627  1.00  0.00     0.012 A 
ATOM     31  C   UNL     1       5.433  13.320   5.725  1.00  0.00     0.012 A 
ATOM     32  C   UNL     1       6.662  15.522   4.552  1.00  0.00     0.001 A 
ATOM     33  C   UNL     1       6.311  13.143   4.650  1.00  0.00     0.001 A 
ATOM     34  C   UNL     1       6.925  14.245   4.064  1.00  0.00     0.000 A 
ENDBRANCH  24  29
ENDBRANCH  15  16
ENDBRANCH   1  15
TORSDOF 8
ENDMDL
MODEL 2
REMARK VINA RESULT:    -5.519      2.076      5.236
REMARK INTER + INTRA:         -11.251
REMARK INTER:                  -8.024
REMARK INTRA:                  -3.226
REMARK UNBOUND:                -3.150
REMARK SMILES CCN(Cc1cc(F)ccc1F)C(=O)Cn1c(=O)n(C(F)F)c2cnc(-c3ccccc3)nc21
REMARK SMILES IDX 13 1 14 2 3 3 2 4 1 5 4 6 5 7 6 8 11 9 7 10 10 11 9 12 12 13
REMARK SMILES IDX 8 14 15 15 16 16 17 17 34 18 18 19 19 20 23 21 33 22 24 23
REMARK SMILES IDX 26 24 25 25 20 26 21 27 22 28 27 29 28 30 32 31 29 32 31 33
REMARK SMILES IDX 30 34
REMARK H PARENT
ROOT
ATOM      1  C   UNL     1       1.675  17.743   5.806  1.00  0.00     0.243 C 
ATOM      2  O   UNL     1       1.917  18.033   4.631  1.00  0.00    -0.273 OA
ENDROOT
BRANCH   1   3
ATOM      3  N   UNL     1       0.392  17.356   6.205  1.00  0.00    -0.337 N 
BRANCH   3   4
ATOM      4  C   UNL     1      -0.151  17.934   7.434  1.00  0.00     0.116 C 
ATOM      5  C   UNL     1      -1.665  18.063   7.380  1.00  0.00     0.027 C 
ENDBRANCH   3   4
BRANCH   3   6
ATOM      6  C   UNL     1      -0.346  16.239   5.609  1.00  0.00     0.158 C 
BRANCH   6   7
ATOM      7  C   UNL     1       0.195  14.888   5.996  1.00  0.00     0.010 A 
ATOM      8  C   UNL     1       1.152  14.217   5.220  1.00  0.00     0.047 A 
ATOM      9  C   UNL     1      -0.306  14.240   7.133  1.00  0.00     0.128 A 
ATOM     10  C   UNL     1       1.600  12.954   5.601  1.00  0.00     0.123 A 
ATOM     11  C   UNL     1       0.144  12.976   7.512  1.00  0.00     0.042 A 
ATOM     12  C   UNL     1       1.106  12.329   6.742  1.00  0.00     0.042 A 
ATOM     13  F   UNL     1      -1.236  14.844   7.885  1.00  0.00    -0.207 F 
ATOM     14  F   UNL     1       2.516  12.328   4.852  1.00  0.00    -0.207 F 
ENDBRANCH   6   7
ENDBRANCH   3   6
ENDBRANCH   1   3
BRANCH   1  15
ATOM     15  C   UNL     1       2.782  17.742   6.874  1.00  0.00     0.229 C 
BRANCH  15  16
ATOM     16  N   UNL     1       3.292  16.412   7.074  1.00  0.00    -0.267 N 
ATOM     17  C   UNL     1       4.330  15.803   6.352  1.00  0.00     0.335 A 
ATOM     18  C   UNL     1       2.992  15.626   8.192  1.00  0.00     0.165 A 
ATOM     19  O   UNL     1       4.860  16.218   5.334  1.00  0.00    -0.247 OA
ATOM     20  N   UNL     1       4.631  14.618   7.024  1.00  0.00    -0.230 N 
ATOM     21  C   UNL     1       3.805  14.516   8.139  1.00  0.00     0.113 A 
ATOM     22  N   UNL     1       2.083  15.883   9.131  1.00  0.00    -0.208 NA
ATOM     23  C   UNL     1       3.662  13.598   9.128  1.00  0.00     0.144 A 
ATOM     24  C   UNL     1       2.006  14.928  10.086  1.00  0.00     0.161 A 
ATOM     25  N   UNL     1       2.757  13.788  10.115  1.00  0.00    -0.234 NA
BRANCH  20  26
ATOM     26  C   UNL     1       5.582  13.667   6.586  1.00  0.00     0.453 C 
ATOM     27  F   UNL     1       5.243  13.201   5.356  1.00  0.00    -0.185 F 
ATOM     28  F   UNL     1       6.789  14.271   6.444  1.00  0.00    -0.185 F 
ENDBRANCH  20  26
BRANCH  24  29
ATOM     29  C   UNL     1       1.028  15.129  11.177  1.00  0.00     0.019 A 
ATOM     30  C   UNL     1       1.110  14.406  12.384  1.00  0.00     0.012 A 
ATOM     31  C   UNL     1      -0.031  16.050  11.056  1.00  0.00     0.012 A 
ATOM     32  C   UNL     1       0.186  14.595  13.417  1.00  0.00     0.001 A 
ATOM     33  C   UNL     1      -0.958  16.243  12.087  1.00  0.00     0.001 A 
ATOM     34  C   UNL     1      -0.848  15.514  13.267  1.00  0.00     0.000 A 
ENDBRANCH  24  29
ENDBRANCH  15  16
ENDBRANCH   1  15
TORSDOF 8
ENDMDL
MODEL 3
REMARK VINA RESULT:    -5.200      1.587      2.109
REMARK INTER + INTRA:         -10.781
REMARK INTER:                  -7.656
REMARK INTRA:                  -3.126
REMARK UNBOUND:                -3.150
REMARK SMILES CCN(Cc1cc(F)ccc1F)C(=O)Cn1c(=O)n(C(F)F)c2cnc(-c3ccccc3)nc21
REMARK SMILES IDX 13 1 14 2 3 3 2 4 1 5 4 6 5 7 6 8 11 9 7 10 10 11 9 12 12 13
REMARK SMILES IDX 8 14 15 15 16 16 17 17 34 18 18 19 19 20 23 21 33 22 24 23
REMARK SMILES IDX 26 24 25 25 20 26 21 27 22 28 27 29 28 30 32 31 29 32 31 33
REMARK SMILES IDX 30 34
REMARK H PARENT
ROOT
ATOM      1  C   UNL     1       0.299  17.349   7.992  1.00  0.00     0.243 C 
ATOM      2  O   UNL     1      -0.733  17.204   8.655  1.00  0.00    -0.273 OA
ENDROOT
BRANCH   1   3
ATOM      3  N   UNL     1       0.273  17.290   6.596  1.00  0.00    -0.337 N 
BRANCH   3   4
ATOM      4  C   UNL     1       0.641  18.493   5.849  1.00  0.00     0.116 C 
ATOM      5  C   UNL     1       1.702  18.206   4.798  1.00  0.00     0.027 C 
ENDBRANCH   3   4
BRANCH   3   6
ATOM      6  C   UNL     1      -0.321  16.187   5.836  1.00  0.00     0.158 C 
BRANCH   6   7
ATOM      7  C   UNL     1       0.330  14.856   6.102  1.00  0.00     0.010 A 
ATOM      8  C   UNL     1       1.468  14.427   5.401  1.00  0.00     0.047 A 
ATOM      9  C   UNL     1      -0.239  13.979   7.035  1.00  0.00     0.128 A 
ATOM     10  C   UNL     1       2.016  13.173   5.659  1.00  0.00     0.123 A 
ATOM     11  C   UNL     1       0.312  12.725   7.292  1.00  0.00     0.042 A 
ATOM     12  C   UNL     1       1.450  12.319   6.601  1.00  0.00     0.042 A 
ATOM     13  F   UNL     1      -1.338  14.349   7.708  1.00  0.00    -0.207 F 
ATOM     14  F   UNL     1       3.104  12.780   4.985  1.00  0.00    -0.207 F 
ENDBRANCH   6   7
ENDBRANCH   3   6
ENDBRANCH   1   3
BRANCH   1  15
ATOM     15  C   UNL     1       1.647  17.655   8.667  1.00  0.00     0.229 C 
BRANCH  15  16
ATOM     16  N   UNL     1       2.360  16.438   8.946  1.00  0.00    -0.267 N 
ATOM     17  C   UNL     1       2.021  15.480   9.914  1.00  0.00     0.335 A 
ATOM     18  C   UNL     1       3.355  15.913   8.113  1.00  0.00     0.165 A 
ATOM     19  O   UNL     1       1.178  15.586  10.790  1.00  0.00    -0.247 OA
ATOM     20  N   UNL     1       2.848  14.381   9.682  1.00  0.00    -0.230 N 
ATOM     21  C   UNL     1       3.663  14.658   8.589  1.00  0.00     0.113 A 
ATOM     22  N   UNL     1       3.918  16.509   7.064  1.00  0.00    -0.208 NA
ATOM     23  C   UNL     1       4.632  13.970   7.934  1.00  0.00     0.144 A 
ATOM     24  C   UNL     1       4.867  15.759   6.459  1.00  0.00     0.161 A 
ATOM     25  N   UNL     1       5.252  14.512   6.862  1.00  0.00    -0.234 NA
BRANCH  20  26
ATOM     26  C   UNL     1       2.875  13.215  10.483  1.00  0.00     0.453 C 
ATOM     27  F   UNL     1       2.690  12.114   9.710  1.00  0.00    -0.185 F 
ATOM     28  F   UNL     1       4.105  13.083  11.043  1.00  0.00    -0.185 F 
ENDBRANCH  20  26
BRANCH  24  29
ATOM     29  C   UNL     1       5.545  16.335   5.278  1.00  0.00     0.019 A 
ATOM     30  C   UNL     1       6.486  15.596   4.534  1.00  0.00     0.012 A 
ATOM     31  C   UNL     1       5.283  17.650   4.847  1.00  0.00     0.012 A 
ATOM     32  C   UNL     1       7.129  16.140   3.418  1.00  0.00     0.001 A 
ATOM     33  C   UNL     1       5.923  18.199   3.731  1.00  0.00     0.001 A 
ATOM     34  C   UNL     1       6.846  17.442   3.016  1.00  0.00     0.000 A 
ENDBRANCH  24  29
ENDBRANCH  15  16
ENDBRANCH   1  15
TORSDOF 8
ENDMDL
MODEL 4
REMARK VINA RESULT:    -5.151      5.427      7.973
REMARK INTER + INTRA:         -10.711
REMARK INTER:                  -9.272
REMARK INTRA:                  -1.439
REMARK UNBOUND:                -3.150
REMARK SMILES CCN(Cc1cc(F)ccc1F)C(=O)Cn1c(=O)n(C(F)F)c2cnc(-c3ccccc3)nc21
REMARK SMILES IDX 13 1 14 2 3 3 2 4 1 5 4 6 5 7 6 8 11 9 7 10 10 11 9 12 12 13
REMARK SMILES IDX 8 14 15 15 16 16 17 17 34 18 18 19 19 20 23 21 33 22 24 23
REMARK SMILES IDX 26 24 25 25 20 26 21 27 22 28 27 29 28 30 32 31 29 32 31 33
REMARK SMILES IDX 30 34
REMARK H PARENT
ROOT
ATOM      1  C   UNL     1       6.607  14.130   6.324  1.00  0.00     0.243 C 
ATOM      2  O   UNL     1       7.467  14.350   7.182  1.00  0.00    -0.273 OA
ENDROOT
BRANCH   1   3
ATOM      3  N   UNL     1       5.671  15.107   5.973  1.00  0.00    -0.337 N 
BRANCH   3   4
ATOM      4  C   UNL     1       6.019  16.041   4.903  1.00  0.00     0.116 C 
ATOM      5  C   UNL     1       5.553  17.456   5.211  1.00  0.00     0.027 C 
ENDBRANCH   3   4
BRANCH   3   6
ATOM      6  C   UNL     1       4.471  15.407   6.758  1.00  0.00     0.158 C 
BRANCH   6   7
ATOM      7  C   UNL     1       3.203  14.877   6.142  1.00  0.00     0.010 A 
ATOM      8  C   UNL     1       3.050  13.525   5.797  1.00  0.00     0.047 A 
ATOM      9  C   UNL     1       2.155  15.757   5.844  1.00  0.00     0.128 A 
ATOM     10  C   UNL     1       1.871  13.086   5.199  1.00  0.00     0.123 A 
ATOM     11  C   UNL     1       0.976  15.315   5.247  1.00  0.00     0.042 A 
ATOM     12  C   UNL     1       0.831  13.968   4.924  1.00  0.00     0.042 A 
ATOM     13  F   UNL     1       2.276  17.058   6.142  1.00  0.00    -0.207 F 
ATOM     14  F   UNL     1       1.739  11.792   4.878  1.00  0.00    -0.207 F 
ENDBRANCH   6   7
ENDBRANCH   3   6
ENDBRANCH   1   3
BRANCH   1  15
ATOM     15  C   UNL     1       6.559  12.793   5.564  1.00  0.00     0.229 C 
BRANCH  15  16
ATOM     16  N   UNL     1       7.885  12.371   5.199  1.00  0.00    -0.267 N 
ATOM     17  C   UNL     1       8.730  12.998   4.271  1.00  0.00     0.335 A 
ATOM     18  C   UNL     1       8.618  11.416   5.913  1.00  0.00     0.165 A 
ATOM     19  O   UNL     1       8.437  13.893   3.497  1.00  0.00    -0.247 OA
ATOM     20  N   UNL     1       9.977  12.386   4.403  1.00  0.00    -0.230 N 
ATOM     21  C   UNL     1       9.897  11.418   5.399  1.00  0.00     0.113 A 
ATOM     22  N   UNL     1       8.174  10.634   6.895  1.00  0.00    -0.208 NA
ATOM     23  C   UNL     1      10.780  10.539   5.937  1.00  0.00     0.144 A 
ATOM     24  C   UNL     1       9.113   9.793   7.385  1.00  0.00     0.161 A 
ATOM     25  N   UNL     1      10.400   9.710   6.936  1.00  0.00    -0.234 NA
BRANCH  20  26
ATOM     26  C   UNL     1      11.104  12.679   3.598  1.00  0.00     0.453 C 
ATOM     27  F   UNL     1      12.172  12.975   4.382  1.00  0.00    -0.185 F 
ATOM     28  F   UNL     1      11.448  11.574   2.888  1.00  0.00    -0.185 F 
ENDBRANCH  20  26
BRANCH  24  29
ATOM     29  C   UNL     1       8.714   8.888   8.485  1.00  0.00     0.019 A 
ATOM     30  C   UNL     1       9.637   8.012   9.090  1.00  0.00     0.012 A 
ATOM     31  C   UNL     1       7.394   8.862   8.974  1.00  0.00     0.012 A 
ATOM     32  C   UNL     1       9.261   7.155  10.130  1.00  0.00     0.001 A 
ATOM     33  C   UNL     1       7.013   8.007  10.015  1.00  0.00     0.001 A 
ATOM     34  C   UNL     1       7.948   7.154  10.592  1.00  0.00     0.000 A 
ENDBRANCH  24  29
ENDBRANCH  15  16
ENDBRANCH   1  15
TORSDOF 8
ENDMDL
MODEL 5
REMARK VINA RESULT:    -5.080      2.497      5.861
REMARK INTER + INTRA:         -10.606
REMARK INTER:                  -7.321
REMARK INTRA:                  -3.286
REMARK UNBOUND:                -3.150
REMARK SMILES CCN(Cc1cc(F)ccc1F)C(=O)Cn1c(=O)n(C(F)F)c2cnc(-c3ccccc3)nc21
REMARK SMILES IDX 13 1 14 2 3 3 2 4 1 5 4 6 5 7 6 8 11 9 7 10 10 11 9 12 12 13
REMARK SMILES IDX 8 14 15 15 16 16 17 17 34 18 18 19 19 20 23 21 33 22 24 23
REMARK SMILES IDX 26 24 25 25 20 26 21 27 22 28 27 29 28 30 32 31 29 32 31 33
REMARK SMILES IDX 30 34
REMARK H PARENT
ROOT
ATOM      1  C   UNL     1       4.565  16.423   6.323  1.00  0.00     0.243 C 
ATOM      2  O   UNL     1       5.164  16.471   5.244  1.00  0.00    -0.273 OA
ENDROOT
BRANCH   1   3
ATOM      3  N   UNL     1       4.570  15.261   7.099  1.00  0.00    -0.337 N 
BRANCH   3   4
ATOM      4  C   UNL     1       5.113  15.342   8.455  1.00  0.00     0.116 C 
ATOM      5  C   UNL     1       5.915  14.103   8.820  1.00  0.00     0.027 C 
ENDBRANCH   3   4
BRANCH   3   6
ATOM      6  C   UNL     1       4.290  13.924   6.571  1.00  0.00     0.158 C 
BRANCH   6   7
ATOM      7  C   UNL     1       2.820  13.606   6.490  1.00  0.00     0.010 A 
ATOM      8  C   UNL     1       2.060  13.874   5.342  1.00  0.00     0.047 A 
ATOM      9  C   UNL     1       2.161  13.081   7.610  1.00  0.00     0.128 A 
ATOM     10  C   UNL     1       0.696  13.594   5.325  1.00  0.00     0.123 A 
ATOM     11  C   UNL     1       0.796  12.800   7.591  1.00  0.00     0.042 A 
ATOM     12  C   UNL     1       0.057  13.056   6.438  1.00  0.00     0.042 A 
ATOM     13  F   UNL     1       2.854  12.833   8.730  1.00  0.00    -0.207 F 
ATOM     14  F   UNL     1      -0.015  13.852   4.220  1.00  0.00    -0.207 F 
ENDBRANCH   6   7
ENDBRANCH   3   6
ENDBRANCH   1   3
BRANCH   1  15
ATOM     15  C   UNL     1       3.834  17.654   6.887  1.00  0.00     0.229 C 
BRANCH  15  16
ATOM     16  N   UNL     1       2.437  17.612   6.546  1.00  0.00    -0.267 N 
ATOM     17  C   UNL     1       1.878  17.910   5.294  1.00  0.00     0.335 A 
ATOM     18  C   UNL     1       1.460  17.017   7.352  1.00  0.00     0.165 A 
ATOM     19  O   UNL     1       2.443  18.413   4.337  1.00  0.00    -0.247 OA
ATOM     20  N   UNL     1       0.539  17.524   5.362  1.00  0.00    -0.230 N 
ATOM     21  C   UNL     1       0.292  16.990   6.622  1.00  0.00     0.113 A 
ATOM     22  N   UNL     1       1.611  16.572   8.598  1.00  0.00    -0.208 NA
ATOM     23  C   UNL     1      -0.804  16.468   7.229  1.00  0.00     0.144 A 
ATOM     24  C   UNL     1       0.479  16.060   9.132  1.00  0.00     0.161 A 
ATOM     25  N   UNL     1      -0.728  15.999   8.496  1.00  0.00    -0.234 NA
BRANCH  20  26
ATOM     26  C   UNL     1      -0.404  17.716   4.325  1.00  0.00     0.453 C 
ATOM     27  F   UNL     1      -0.935  16.522   3.952  1.00  0.00    -0.185 F 
ATOM     28  F   UNL     1      -1.438  18.463   4.790  1.00  0.00    -0.185 F 
ENDBRANCH  20  26
BRANCH  24  29
ATOM     29  C   UNL     1       0.550  15.533  10.512  1.00  0.00     0.019 A 
ATOM     30  C   UNL     1       1.642  14.755  10.948  1.00  0.00     0.012 A 
ATOM     31  C   UNL     1      -0.471  15.782  11.449  1.00  0.00     0.012 A 
ATOM     32  C   UNL     1       1.711  14.256  12.253  1.00  0.00     0.001 A 
ATOM     33  C   UNL     1      -0.406  15.285  12.756  1.00  0.00     0.001 A 
ATOM     34  C   UNL     1       0.686  14.522  13.156  1.00  0.00     0.000 A 
ENDBRANCH  24  29
ENDBRANCH  15  16
ENDBRANCH   1  15
TORSDOF 8
ENDMDL
MODEL 6
REMARK VINA RESULT:    -4.997      3.671      5.657
REMARK INTER + INTRA:         -10.484
REMARK INTER:                  -8.665
REMARK INTRA:                  -1.819
REMARK UNBOUND:                -3.150
REMARK SMILES CCN(Cc1cc(F)ccc1F)C(=O)Cn1c(=O)n(C(F)F)c2cnc(-c3ccccc3)nc21
REMARK SMILES IDX 13 1 14 2 3 3 2 4 1 5 4 6 5 7 6 8 11 9 7 10 10 11 9 12 12 13
REMARK SMILES IDX 8 14 15 15 16 16 17 17 34 18 18 19 19 20 23 21 33 22 24 23
REMARK SMILES IDX 26 24 25 25 20 26 21 27 22 28 27 29 28 30 32 31 29 32 31 33
REMARK SMILES IDX 30 34
REMARK H PARENT
ROOT
ATOM      1  C   UNL     1       5.029  14.491   8.638  1.00  0.00     0.243 C 
ATOM      2  O   UNL     1       4.415  13.504   9.057  1.00  0.00    -0.273 OA
ENDROOT
BRANCH   1   3
ATOM      3  N   UNL     1       4.358  15.554   8.028  1.00  0.00    -0.337 N 
BRANCH   3   4
ATOM      4  C   UNL     1       3.544  16.428   8.873  1.00  0.00     0.116 C 
ATOM      5  C   UNL     1       3.681  17.890   8.475  1.00  0.00     0.027 C 
ENDBRANCH   3   4
BRANCH   3   6
ATOM      6  C   UNL     1       4.222  15.710   6.578  1.00  0.00     0.158 C 
BRANCH   6   7
ATOM      7  C   UNL     1       2.999  15.036   6.014  1.00  0.00     0.010 A 
ATOM      8  C   UNL     1       2.962  13.660   5.743  1.00  0.00     0.047 A 
ATOM      9  C   UNL     1       1.872  15.803   5.688  1.00  0.00     0.128 A 
ATOM     10  C   UNL     1       1.820  13.086   5.191  1.00  0.00     0.123 A 
ATOM     11  C   UNL     1       0.730  15.227   5.137  1.00  0.00     0.042 A 
ATOM     12  C   UNL     1       0.702  13.857   4.888  1.00  0.00     0.042 A 
ATOM     13  F   UNL     1       1.881  17.124   5.915  1.00  0.00    -0.207 F 
ATOM     14  F   UNL     1       1.799  11.771   4.941  1.00  0.00    -0.207 F 
ENDBRANCH   6   7
ENDBRANCH   3   6
ENDBRANCH   1   3
BRANCH   1  15
ATOM     15  C   UNL     1       6.552  14.619   8.817  1.00  0.00     0.229 C 
BRANCH  15  16
ATOM     16  N   UNL     1       7.211  13.399   8.433  1.00  0.00    -0.267 N 
ATOM     17  C   UNL     1       7.453  12.291   9.259  1.00  0.00     0.335 A 
ATOM     18  C   UNL     1       7.478  13.046   7.106  1.00  0.00     0.165 A 
ATOM     19  O   UNL     1       7.306  12.229  10.469  1.00  0.00    -0.247 OA
ATOM     20  N   UNL     1       7.906  11.271   8.422  1.00  0.00    -0.230 N 
ATOM     21  C   UNL     1       7.926  11.743   7.114  1.00  0.00     0.113 A 
ATOM     22  N   UNL     1       7.344  13.817   6.029  1.00  0.00    -0.208 NA
ATOM     23  C   UNL     1       8.267  11.201   5.918  1.00  0.00     0.144 A 
ATOM     24  C   UNL     1       7.695  13.205   4.876  1.00  0.00     0.161 A 
ATOM     25  N   UNL     1       8.161  11.925   4.781  1.00  0.00    -0.234 NA
BRANCH  20  26
ATOM     26  C   UNL     1       8.329   9.996   8.867  1.00  0.00     0.453 C 
ATOM     27  F   UNL     1       7.842   9.031   8.045  1.00  0.00    -0.185 F 
ATOM     28  F   UNL     1       9.681   9.918   8.786  1.00  0.00    -0.185 F 
ENDBRANCH  20  26
BRANCH  24  29
ATOM     29  C   UNL     1       7.573  13.982   3.623  1.00  0.00     0.019 A 
ATOM     30  C   UNL     1       7.408  15.381   3.637  1.00  0.00     0.012 A 
ATOM     31  C   UNL     1       7.612  13.357   2.362  1.00  0.00     0.012 A 
ATOM     32  C   UNL     1       7.292  16.118   2.454  1.00  0.00     0.001 A 
ATOM     33  C   UNL     1       7.497  14.089   1.175  1.00  0.00     0.001 A 
ATOM     34  C   UNL     1       7.337  15.470   1.223  1.00  0.00     0.000 A 
ENDBRANCH  24  29
ENDBRANCH  15  16
ENDBRANCH   1  15
TORSDOF 8
ENDMDL
MODEL 7
REMARK VINA RESULT:    -4.932      3.523      5.758
REMARK INTER + INTRA:         -10.388
REMARK INTER:                  -7.456
REMARK INTRA:                  -2.933
REMARK UNBOUND:                -3.150
REMARK SMILES CCN(Cc1cc(F)ccc1F)C(=O)Cn1c(=O)n(C(F)F)c2cnc(-c3ccccc3)nc21
REMARK SMILES IDX 13 1 14 2 3 3 2 4 1 5 4 6 5 7 6 8 11 9 7 10 10 11 9 12 12 13
REMARK SMILES IDX 8 14 15 15 16 16 17 17 34 18 18 19 19 20 23 21 33 22 24 23
REMARK SMILES IDX 26 24 25 25 20 26 21 27 22 28 27 29 28 30 32 31 29 32 31 33
REMARK SMILES IDX 30 34
REMARK H PARENT
ROOT
ATOM      1  C   UNL     1       6.772  13.610   6.946  1.00  0.00     0.243 C 
ATOM      2  O   UNL     1       7.228  12.502   6.649  1.00  0.00    -0.273 OA
ENDROOT
BRANCH   1   3
ATOM      3  N   UNL     1       6.097  14.389   6.002  1.00  0.00    -0.337 N 
BRANCH   3   4
ATOM      4  C   UNL     1       6.622  14.425   4.637  1.00  0.00     0.116 C 
ATOM      5  C   UNL     1       6.867  15.849   4.161  1.00  0.00     0.027 C 
ENDBRANCH   3   4
BRANCH   3   6
ATOM      6  C   UNL     1       5.046  15.353   6.340  1.00  0.00     0.158 C 
BRANCH   6   7
ATOM      7  C   UNL     1       3.667  14.901   5.939  1.00  0.00     0.010 A 
ATOM      8  C   UNL     1       3.367  13.554   5.682  1.00  0.00     0.047 A 
ATOM      9  C   UNL     1       2.652  15.849   5.753  1.00  0.00     0.128 A 
ATOM     10  C   UNL     1       2.085  13.187   5.282  1.00  0.00     0.123 A 
ATOM     11  C   UNL     1       1.369  15.480   5.354  1.00  0.00     0.042 A 
ATOM     12  C   UNL     1       1.082  14.138   5.118  1.00  0.00     0.042 A 
ATOM     13  F   UNL     1       2.910  17.147   5.969  1.00  0.00    -0.207 F 
ATOM     14  F   UNL     1       1.814  11.897   5.045  1.00  0.00    -0.207 F 
ENDBRANCH   6   7
ENDBRANCH   3   6
ENDBRANCH   1   3
BRANCH   1  15
ATOM     15  C   UNL     1       6.877  14.160   8.379  1.00  0.00     0.229 C 
BRANCH  15  16
ATOM     16  N   UNL     1       6.250  13.264   9.313  1.00  0.00    -0.267 N 
ATOM     17  C   UNL     1       6.900  12.325  10.128  1.00  0.00     0.335 A 
ATOM     18  C   UNL     1       4.918  13.382   9.726  1.00  0.00     0.165 A 
ATOM     19  O   UNL     1       8.071  11.986  10.069  1.00  0.00    -0.247 OA
ATOM     20  N   UNL     1       5.938  11.845  11.017  1.00  0.00    -0.230 N 
ATOM     21  C   UNL     1       4.731  12.489  10.758  1.00  0.00     0.113 A 
ATOM     22  N   UNL     1       3.989  14.189   9.216  1.00  0.00    -0.208 NA
ATOM     23  C   UNL     1       3.489  12.421  11.299  1.00  0.00     0.144 A 
ATOM     24  C   UNL     1       2.781  14.070   9.812  1.00  0.00     0.161 A 
ATOM     25  N   UNL     1       2.494  13.208  10.831  1.00  0.00    -0.234 NA
BRANCH  20  26
ATOM     26  C   UNL     1       6.164  10.826  11.972  1.00  0.00     0.453 C 
ATOM     27  F   UNL     1       5.902  11.291  13.221  1.00  0.00    -0.185 F 
ATOM     28  F   UNL     1       5.295   9.807  11.755  1.00  0.00    -0.185 F 
ENDBRANCH  20  26
BRANCH  24  29
ATOM     29  C   UNL     1       1.686  14.933   9.317  1.00  0.00     0.019 A 
ATOM     30  C   UNL     1       0.478  14.388   8.839  1.00  0.00     0.012 A 
ATOM     31  C   UNL     1       1.805  16.336   9.300  1.00  0.00     0.012 A 
ATOM     32  C   UNL     1      -0.558  15.202   8.370  1.00  0.00     0.001 A 
ATOM     33  C   UNL     1       0.771  17.154   8.833  1.00  0.00     0.001 A 
ATOM     34  C   UNL     1      -0.411  16.586   8.368  1.00  0.00     0.000 A 
ENDBRANCH  24  29
ENDBRANCH  15  16
ENDBRANCH   1  15
TORSDOF 8
ENDMDL
MODEL 8
REMARK VINA RESULT:    -4.896      4.472      6.436
REMARK INTER + INTRA:         -10.335
REMARK INTER:                  -8.660
REMARK INTRA:                  -1.675
REMARK UNBOUND:                -3.150
REMARK SMILES CCN(Cc1cc(F)ccc1F)C(=O)Cn1c(=O)n(C(F)F)c2cnc(-c3ccccc3)nc21
REMARK SMILES IDX 13 1 14 2 3 3 2 4 1 5 4 6 5 7 6 8 11 9 7 10 10 11 9 12 12 13
REMARK SMILES IDX 8 14 15 15 16 16 17 17 34 18 18 19 19 20 23 21 33 22 24 23
REMARK SMILES IDX 26 24 25 25 20 26 21 27 22 28 27 29 28 30 32 31 29 32 31 33
REMARK SMILES IDX 30 34
REMARK H PARENT
ROOT
ATOM      1  C   UNL     1       5.581  13.366   9.618  1.00  0.00     0.243 C 
ATOM      2  O   UNL     1       4.730  12.685  10.197  1.00  0.00    -0.273 OA
ENDROOT
BRANCH   1   3
ATOM      3  N   UNL     1       5.214  14.335   8.680  1.00  0.00    -0.337 N 
BRANCH   3   4
ATOM      4  C   UNL     1       6.279  15.068   7.995  1.00  0.00     0.116 C 
ATOM      5  C   UNL     1       6.143  16.572   8.179  1.00  0.00     0.027 C 
ENDBRANCH   3   4
BRANCH   3   6
ATOM      6  C   UNL     1       3.846  14.831   8.510  1.00  0.00     0.158 C 
BRANCH   6   7
ATOM      7  C   UNL     1       3.026  14.010   7.550  1.00  0.00     0.010 A 
ATOM      8  C   UNL     1       2.026  13.127   7.987  1.00  0.00     0.047 A 
ATOM      9  C   UNL     1       3.295  14.073   6.177  1.00  0.00     0.128 A 
ATOM     10  C   UNL     1       1.315  12.364   7.065  1.00  0.00     0.123 A 
ATOM     11  C   UNL     1       2.582  13.309   5.255  1.00  0.00     0.042 A 
ATOM     12  C   UNL     1       1.582  12.449   5.702  1.00  0.00     0.042 A 
ATOM     13  F   UNL     1       4.257  14.891   5.727  1.00  0.00    -0.207 F 
ATOM     14  F   UNL     1       0.362  11.529   7.497  1.00  0.00    -0.207 F 
ENDBRANCH   6   7
ENDBRANCH   3   6
ENDBRANCH   1   3
BRANCH   1  15
ATOM     15  C   UNL     1       7.079  13.218   9.939  1.00  0.00     0.229 C 
BRANCH  15  16
ATOM     16  N   UNL     1       7.505  11.858   9.749  1.00  0.00    -0.267 N 
ATOM     17  C   UNL     1       7.375  10.810  10.674  1.00  0.00     0.335 A 
ATOM     18  C   UNL     1       7.879  11.328   8.509  1.00  0.00     0.165 A 
ATOM     19  O   UNL     1       7.043  10.899  11.845  1.00  0.00    -0.247 OA
ATOM     20  N   UNL     1       7.712   9.641   9.991  1.00  0.00    -0.230 N 
ATOM     21  C   UNL     1       8.026   9.968   8.675  1.00  0.00     0.113 A 
ATOM     22  N   UNL     1       8.075  12.000   7.377  1.00  0.00    -0.208 NA
ATOM     23  C   UNL     1       8.412   9.252   7.590  1.00  0.00     0.144 A 
ATOM     24  C   UNL     1       8.449  11.218   6.339  1.00  0.00     0.161 A 
ATOM     25  N   UNL     1       8.634   9.867   6.406  1.00  0.00    -0.234 NA
BRANCH  20  26
ATOM     26  C   UNL     1       7.777   8.357  10.581  1.00  0.00     0.453 C 
ATOM     27  F   UNL     1       6.779   7.572  10.099  1.00  0.00    -0.185 F 
ATOM     28  F   UNL     1       8.940   7.756  10.223  1.00  0.00    -0.185 F 
ENDBRANCH  20  26
BRANCH  24  29
ATOM     29  C   UNL     1       8.684  11.876   5.036  1.00  0.00     0.019 A 
ATOM     30  C   UNL     1       9.986  12.062   4.528  1.00  0.00     0.012 A 
ATOM     31  C   UNL     1       7.618  12.349   4.247  1.00  0.00     0.012 A 
ATOM     32  C   UNL     1      10.210  12.685   3.296  1.00  0.00     0.001 A 
ATOM     33  C   UNL     1       7.837  12.972   3.013  1.00  0.00     0.001 A 
ATOM     34  C   UNL     1       9.134  13.140   2.539  1.00  0.00     0.000 A 
ENDBRANCH  24  29
ENDBRANCH  15  16
ENDBRANCH   1  15
TORSDOF 8
ENDMDL
MODEL 9
REMARK VINA RESULT:    -4.860      5.073      8.008
REMARK INTER + INTRA:         -10.283
REMARK INTER:                  -8.603
REMARK INTRA:                  -1.680
REMARK UNBOUND:                -3.150
REMARK SMILES CCN(Cc1cc(F)ccc1F)C(=O)Cn1c(=O)n(C(F)F)c2cnc(-c3ccccc3)nc21
REMARK SMILES IDX 13 1 14 2 3 3 2 4 1 5 4 6 5 7 6 8 11 9 7 10 10 11 9 12 12 13
REMARK SMILES IDX 8 14 15 15 16 16 17 17 34 18 18 19 19 20 23 21 33 22 24 23
REMARK SMILES IDX 26 24 25 25 20 26 21 27 22 28 27 29 28 30 32 31 29 32 31 33
REMARK SMILES IDX 30 34
REMARK H PARENT
ROOT
ATOM      1  C   UNL     1       6.283  14.392   4.899  1.00  0.00     0.243 C 
ATOM      2  O   UNL     1       6.776  15.476   4.573  1.00  0.00    -0.273 OA
ENDROOT
BRANCH   1   3
ATOM      3  N   UNL     1       5.548  14.259   6.080  1.00  0.00    -0.337 N 
BRANCH   3   4
ATOM      4  C   UNL     1       6.126  14.794   7.313  1.00  0.00     0.116 C 
ATOM      5  C   UNL     1       5.652  14.029   8.540  1.00  0.00     0.027 C 
ENDBRANCH   3   4
BRANCH   3   6
ATOM      6  C   UNL     1       4.356  13.417   6.211  1.00  0.00     0.158 C 
BRANCH   6   7
ATOM      7  C   UNL     1       3.082  14.116   5.816  1.00  0.00     0.010 A 
ATOM      8  C   UNL     1       2.895  15.494   6.010  1.00  0.00     0.047 A 
ATOM      9  C   UNL     1       2.016  13.373   5.291  1.00  0.00     0.128 A 
ATOM     10  C   UNL     1       1.687  16.091   5.659  1.00  0.00     0.123 A 
ATOM     11  C   UNL     1       0.809  13.974   4.940  1.00  0.00     0.042 A 
ATOM     12  C   UNL     1       0.643  15.344   5.123  1.00  0.00     0.042 A 
ATOM     13  F   UNL     1       2.154  12.052   5.112  1.00  0.00    -0.207 F 
ATOM     14  F   UNL     1       1.525  17.407   5.847  1.00  0.00    -0.207 F 
ENDBRANCH   6   7
ENDBRANCH   3   6
ENDBRANCH   1   3
BRANCH   1  15
ATOM     15  C   UNL     1       6.409  13.153   3.996  1.00  0.00     0.229 C 
BRANCH  15  16
ATOM     16  N   UNL     1       7.776  12.709   3.933  1.00  0.00    -0.267 N 
ATOM     17  C   UNL     1       8.726  13.080   2.969  1.00  0.00     0.335 A 
ATOM     18  C   UNL     1       8.423  12.041   4.978  1.00  0.00     0.165 A 
ATOM     19  O   UNL     1       8.523  13.696   1.935  1.00  0.00    -0.247 OA
ATOM     20  N   UNL     1       9.953  12.596   3.423  1.00  0.00    -0.230 N 
ATOM     21  C   UNL     1       9.756  11.957   4.643  1.00  0.00     0.113 A 
ATOM     22  N   UNL     1       7.866  11.557   6.087  1.00  0.00    -0.208 NA
ATOM     23  C   UNL     1      10.574  11.318   5.518  1.00  0.00     0.144 A 
ATOM     24  C   UNL     1       8.744  10.943   6.912  1.00  0.00     0.161 A 
ATOM     25  N   UNL     1      10.079  10.798   6.664  1.00  0.00    -0.234 NA
BRANCH  20  26
ATOM     26  C   UNL     1      11.169  12.697   2.708  1.00  0.00     0.453 C 
ATOM     27  F   UNL     1      12.138  13.217   3.507  1.00  0.00    -0.185 F 
ATOM     28  F   UNL     1      11.591  11.455   2.359  1.00  0.00    -0.185 F 
ENDBRANCH  20  26
BRANCH  24  29
ATOM     29  C   UNL     1       8.218  10.380   8.174  1.00  0.00     0.019 A 
ATOM     30  C   UNL     1       8.026  11.182   9.316  1.00  0.00     0.012 A 
ATOM     31  C   UNL     1       7.889   9.015   8.290  1.00  0.00     0.012 A 
ATOM     32  C   UNL     1       7.530  10.651  10.511  1.00  0.00     0.001 A 
ATOM     33  C   UNL     1       7.392   8.479   9.483  1.00  0.00     0.001 A 
ATOM     34  C   UNL     1       7.212   9.298  10.593  1.00  0.00     0.000 A 
ENDBRANCH  24  29
ENDBRANCH  15  16
ENDBRANCH   1  15
TORSDOF 8
ENDMDL
MODEL 10
REMARK VINA RESULT:    -4.848      3.875      6.805
REMARK INTER + INTRA:         -10.265
REMARK INTER:                  -8.261
REMARK INTRA:                  -2.004
REMARK UNBOUND:                -3.150
REMARK SMILES CCN(Cc1cc(F)ccc1F)C(=O)Cn1c(=O)n(C(F)F)c2cnc(-c3ccccc3)nc21
REMARK SMILES IDX 13 1 14 2 3 3 2 4 1 5 4 6 5 7 6 8 11 9 7 10 10 11 9 12 12 13
REMARK SMILES IDX 8 14 15 15 16 16 17 17 34 18 18 19 19 20 23 21 33 22 24 23
REMARK SMILES IDX 26 24 25 25 20 26 21 27 22 28 27 29 28 30 32 31 29 32 31 33
REMARK SMILES IDX 30 34
REMARK H PARENT
ROOT
ATOM      1  C   UNL     1       5.201  16.128   6.889  1.00  0.00     0.243 C 
ATOM      2  O   UNL     1       4.395  16.756   6.194  1.00  0.00    -0.273 OA
ENDROOT
BRANCH   1   3
ATOM      3  N   UNL     1       4.773  15.369   7.982  1.00  0.00    -0.337 N 
BRANCH   3   4
ATOM      4  C   UNL     1       4.947  15.932   9.321  1.00  0.00     0.116 C 
ATOM      5  C   UNL     1       4.880  14.862  10.399  1.00  0.00     0.027 C 
ENDBRANCH   3   4
BRANCH   3   6
ATOM      6  C   UNL     1       4.384  13.959   7.895  1.00  0.00     0.158 C 
BRANCH   6   7
ATOM      7  C   UNL     1       3.049  13.745   7.233  1.00  0.00     0.010 A 
ATOM      8  C   UNL     1       1.841  13.833   7.941  1.00  0.00     0.047 A 
ATOM      9  C   UNL     1       2.995  13.388   5.879  1.00  0.00     0.128 A 
ATOM     10  C   UNL     1       0.632  13.594   7.293  1.00  0.00     0.123 A 
ATOM     11  C   UNL     1       1.784  13.151   5.232  1.00  0.00     0.042 A 
ATOM     12  C   UNL     1       0.592  13.257   5.944  1.00  0.00     0.042 A 
ATOM     13  F   UNL     1       4.132  13.275   5.177  1.00  0.00    -0.207 F 
ATOM     14  F   UNL     1      -0.513  13.685   7.983  1.00  0.00    -0.207 F 
ENDBRANCH   6   7
ENDBRANCH   3   6
ENDBRANCH   1   3
BRANCH   1  15
ATOM     15  C   UNL     1       6.702  16.108   6.552  1.00  0.00     0.229 C 
BRANCH  15  16
ATOM     16  N   UNL     1       6.941  15.355   5.350  1.00  0.00    -0.267 N 
ATOM     17  C   UNL     1       6.988  15.867   4.044  1.00  0.00     0.335 A 
ATOM     18  C   UNL     1       7.416  14.039   5.341  1.00  0.00     0.165 A 
ATOM     19  O   UNL     1       6.671  16.988   3.682  1.00  0.00    -0.247 OA
ATOM     20  N   UNL     1       7.461  14.833   3.236  1.00  0.00    -0.230 N 
ATOM     21  C   UNL     1       7.711  13.721   4.034  1.00  0.00     0.113 A 
ATOM     22  N   UNL     1       7.548  13.228   6.389  1.00  0.00    -0.208 NA
ATOM     23  C   UNL     1       8.171  12.468   3.792  1.00  0.00     0.144 A 
ATOM     24  C   UNL     1       8.019  12.001   6.069  1.00  0.00     0.161 A 
ATOM     25  N   UNL     1       8.327  11.587   4.806  1.00  0.00    -0.234 NA
BRANCH  20  26
ATOM     26  C   UNL     1       7.595  14.912   1.829  1.00  0.00     0.453 C 
ATOM     27  F   UNL     1       8.896  14.744   1.475  1.00  0.00    -0.185 F 
ATOM     28  F   UNL     1       6.910  13.890   1.255  1.00  0.00    -0.185 F 
ENDBRANCH  20  26
BRANCH  24  29
ATOM     29  C   UNL     1       8.206  11.032   7.171  1.00  0.00     0.019 A 
ATOM     30  C   UNL     1       7.991  11.393   8.516  1.00  0.00     0.012 A 
ATOM     31  C   UNL     1       8.611   9.705   6.923  1.00  0.00     0.012 A 
ATOM     32  C   UNL     1       8.168  10.478   9.558  1.00  0.00     0.001 A 
ATOM     33  C   UNL     1       8.789   8.786   7.963  1.00  0.00     0.001 A 
ATOM     34  C   UNL     1       8.567   9.174   9.281  1.00  0.00     0.000 A 
ENDBRANCH  24  29
ENDBRANCH  15  16
ENDBRANCH   1  15
TORSDOF 8
ENDMDL
