REMARK SMILES CCN(Cc1cc(F)ccc1F)C(=O)Cn1c(=O)n(C(F)F)c2cnc(-c3ccccc3)nc21
REMARK SMILES IDX 13 1 14 2 3 3 2 4 1 5 4 6 5 7 6 8 11 9 7 10 10 11 9 12 12 13
REMARK SMILES IDX 8 14 15 15 16 16 17 17 34 18 18 19 19 20 23 21 33 22 24 23
REMARK SMILES IDX 26 24 25 25 20 26 21 27 22 28 27 29 28 30 32 31 29 32 31 33
REMARK SMILES IDX 30 34
REMARK H PARENT
ROOT
ATOM      1  C   UNL     1      -1.465   0.128   0.648  1.00  0.00     0.243 C 
ATOM      2  O   UNL     1      -1.349   0.826   1.660  1.00  0.00    -0.273 OA
ENDROOT
BRANCH   1   3
ATOM      3  N   UNL     1      -2.069  -1.131   0.705  1.00  0.00    -0.337 N 
BRANCH   3   4
ATOM      4  C   UNL     1      -2.481  -1.638   2.014  1.00  0.00     0.116 C 
ATOM      5  C   UNL     1      -1.347  -2.359   2.726  1.00  0.00     0.027 C 
ENDBRANCH   3   4
BRANCH   3   6
ATOM      6  C   UNL     1      -2.102  -2.073  -0.417  1.00  0.00     0.158 C 
BRANCH   6   7
ATOM      7  C   UNL     1      -3.140  -1.734  -1.454  1.00  0.00     0.010 A 
ATOM      8  C   UNL     1      -4.423  -1.283  -1.107  1.00  0.00     0.047 A 
ATOM      9  C   UNL     1      -2.853  -1.925  -2.812  1.00  0.00     0.128 A 
ATOM     10  C   UNL     1      -5.361  -1.013  -2.100  1.00  0.00     0.123 A 
ATOM     11  C   UNL     1      -3.793  -1.653  -3.804  1.00  0.00     0.042 A 
ATOM     12  C   UNL     1      -5.057  -1.191  -3.446  1.00  0.00     0.042 A 
ATOM     13  F   UNL     1      -1.644  -2.374  -3.177  1.00  0.00    -0.207 F 
ATOM     14  F   UNL     1      -6.580  -0.580  -1.753  1.00  0.00    -0.207 F 
ENDBRANCH   6   7
ENDBRANCH   3   6
ENDBRANCH   1   3
BRANCH   1  15
ATOM     15  C   UNL     1      -1.000   0.633  -0.729  1.00  0.00     0.229 C 
BRANCH  15  16
ATOM     16  N   UNL     1      -0.190   1.813  -0.588  1.00  0.00    -0.267 N 
ATOM     17  C   UNL     1      -0.646   3.140  -0.605  1.00  0.00     0.335 A 
ATOM     18  C   UNL     1       1.141   1.793  -0.156  1.00  0.00     0.165 A 
ATOM     19  O   UNL     1      -1.761   3.531  -0.908  1.00  0.00    -0.247 OA
ATOM     20  N   UNL     1       0.436   3.930  -0.215  1.00  0.00    -0.230 N 
ATOM     21  C   UNL     1       1.522   3.101   0.048  1.00  0.00     0.113 A 
ATOM     22  N   UNL     1       1.912   0.721   0.015  1.00  0.00    -0.208 NA
ATOM     23  C   UNL     1       2.799   3.316   0.453  1.00  0.00     0.144 A 
ATOM     24  C   UNL     1       3.166   1.015   0.427  1.00  0.00     0.161 A 
ATOM     25  N   UNL     1       3.642   2.276   0.644  1.00  0.00    -0.234 NA
BRANCH  20  26
ATOM     26  C   UNL     1       0.420   5.344  -0.165  1.00  0.00     0.453 C 
ATOM     27  F   UNL     1       1.024   5.777   0.972  1.00  0.00    -0.185 F 
ATOM     28  F   UNL     1       1.152   5.838  -1.196  1.00  0.00    -0.185 F 
ENDBRANCH  20  26
BRANCH  24  29
ATOM     29  C   UNL     1       4.095  -0.114   0.651  1.00  0.00     0.019 A 
ATOM     30  C   UNL     1       3.686  -1.451   0.475  1.00  0.00     0.012 A 
ATOM     31  C   UNL     1       5.428   0.098   1.053  1.00  0.00     0.012 A 
ATOM     32  C   UNL     1       4.563  -2.520   0.687  1.00  0.00     0.001 A 
ATOM     33  C   UNL     1       6.309  -0.968   1.266  1.00  0.00     0.001 A 
ATOM     34  C   UNL     1       5.875  -2.277   1.082  1.00  0.00     0.000 A 
ENDBRANCH  24  29
ENDBRANCH  15  16
ENDBRANCH   1  15
TORSDOF 8
